# vtk DataFile Version 2.0
CellBP Time: 2.44
ASCII
DATASET UNSTRUCTURED_GRID
POINTS 296 double
-9.10659 -3.73847 0
-8.53547 -4.90475 0
-9.51727 -2.50558 0
-9.7786 -1.24103 0
-8.27041 -2.78078 0
-7.81176 -5.98469 0
-6.9537 -6.96123 0
-7.83016 -3.82744 0
-7.26013 -4.8137 0
-5.99098 -7.82623 0
-4.92249 -8.55392 0
-9.87239 0.0454705 0
-9.79655 1.34082 0
-8.57847 -1.66306 0
-8.71525 -0.522381 0
-7.50604 -1.97415 0
-7.13907 -2.86409 0
-6.57227 -5.72707 0
-5.77306 -6.54864 0
-6.70792 -3.83901 0
-6.14936 -4.626 0
-3.75681 -9.12729 0
-2.52151 -9.54121 0
-4.87502 -7.25981 0
-3.89276 -7.84093 0
-8.72691 0.636783 0
-9.55301 2.62235 0
-8.56353 1.75758 0
-9.13536 3.85326 0
-7.66773 -0.913379 0
-7.72443 0.0830795 0
-6.8783 -1.29495 0
-1.24224 -9.79082 0
-6.37359 -2.1241 0
-6.24933 -3.01786 0
-5.48114 -5.42606 0
-4.75384 -6.06753 0
-5.59822 -3.7164 0
-5.21218 -4.51557 0
-2.85117 -8.31378 0
-1.76759 -8.58061 0
-3.90232 -6.6791 0
-3.04168 -7.10897 0
0.0520482 -9.86799 0
-7.64127 1.13376 0
-8.28999 2.89778 0
-7.49117 2.09051 0
-8.54492 5.00896 0
-7.82087 3.94555 0
-7.80854 6.07973 0
-6.71167 -0.3879 0
-6.89051 0.549959 0
-5.71852 -0.993507 0
-0.587796 -8.74837 0
0.559297 -8.69794 0
-5.25324 -2.45439 0
-4.44574 -5.05063 0
-3.86866 -5.73178 0
-4.39936 -3.77192 0
-2.04945 -7.51552 0
-1.12878 -7.7324 0
-2.97261 -6.05865 0
-2.29499 -6.5784 0
1.34058 -9.77158 0
-6.63286 1.40791 0
-7.1101 3.08776 0
-6.60449 2.35018 0
-7.23439 4.94245 0
-6.66114 3.96505 0
-6.95284 7.0509 0
-6.51606 5.83887 0
-5.98252 7.91151 0
-4.42592 -1.17422 0
-5.77052 0.50696 0
-4.62923 -0.0150736 0
0.0022373 -7.7848 0
1.71624 -8.56136 0
0.932221 -7.69216 0
-4.01193 -2.38904 0
-3.47607 -1.38758 0
-3.27125 -4.76974 0
-3.25014 -3.24753 0
-1.37281 -6.62707 0
-0.513024 -6.96876 0
-1.96621 -5.50171 0
2.61222 -9.51914 0
-5.4664 2.02116 0
-6.04415 3.04266 0
-6.05258 4.82135 0
-5.71257 3.95172 0
-5.70869 6.65379 0
-5.40296 5.56263 0
-4.9151 8.64692 0
-4.79342 7.33031 0
-3.48838 -0.422592 0
-4.42023 1.24092 0
-3.69355 0.590191 0
-4.03442 2.31149 0
-3.75338 9.2216 0
2.82611 -8.24196 0
0.403688 -6.73272 0
1.99241 -7.44558 0
1.28113 -6.83402 0
-2.43819 -0.870888 0
-2.82988 -2.12344 0
-2.28508 -4.07451 0
-2.31763 -2.96001 0
-0.445981 -5.81443 0
-1.21675 -4.47544 0
3.84164 -9.10727 0
-4.75429 3.3651 0
-5.04352 4.5474 0
-4.60306 6.2154 0
-4.49919 5.30576 0
-3.81434 7.92478 0
-3.78902 6.77294 0
-2.75884 8.34542 0
-1.64435 -0.134099 0
-1.44598 -0.88658 0
-2.48127 0.510374 0
-3.238 1.44202 0
-3.21858 3.29828 0
-2.89569 2.36834 0
-1.35192 0.630451 0
-2.52057 9.63072 0
3.8875 -7.80059 0
2.92169 -7.07067 0
0.93537 -5.7656 0
2.04017 -6.34333 0
-1.6775 -1.98728 0
-1.42765 -3.26423 0
0.0845985 -4.71273 0
-0.561335 -3.67771 0
4.87935 -7.23755 0
5.00474 -8.53591 0
-3.74657 4.51418 0
-3.70243 5.69605 0
-2.85781 7.21668 0
-2.98306 6.29191 0
-1.65026 8.66072 0
-1.9187 7.55169 0
-2.3257 4.02648 0
-0.728257 -1.32444 0
-0.834935 -0.254815 0
-1.93365 1.6847 0
-2.11703 2.86896 0
-1.30395 3.53212 0
-0.870343 1.35446 0
-0.281823 0.460016 0
-0.530409 8.80572 0
-1.24508 9.87938 0
1.1 -4.53645 0
3.85668 -6.62746 0
2.94738 -6.02077 0
2.08993 -5.36843 0
4.73265 -6.12758 0
-0.55392 -2.4708 0
0.493486 -3.44624 0
0.0542327 -1.60848 0
1.46907 -3.65484 0
5.81209 -6.54216 0
6.0842 -7.81315 0
-2.45632 5.304 0
-2.10793 6.47385 0
-0.892745 7.743 0
-1.25449 6.87146 0
0.0894775 7.82613 0
-1.13766 4.46844 0
0.150273 -0.61515 0
-0.800082 2.49124 0
-0.336397 3.59209 0
0.0606021 1.5144 0
0.739404 0.474322 0
0.643976 8.81775 0
0.0476462 9.97372 0
2.35769 -4.24389 0
3.81472 -5.56892 0
2.96515 -5.15409 0
5.52572 -5.43122 0
4.64277 -5.21611 0
0.630608 -2.29067 0
1.25038 -2.93637 0
0.757111 -1.38948 0
2.14899 -3.11388 0
2.97084 -3.44533 0
6.10731 -4.74451 0
6.6021 -5.71521 0
7.05825 -6.95217 0
-1.00881 5.77701 0
-0.363247 6.82943 0
1.11628 7.71924 0
0.559102 7.03029 0
0.000238473 4.70159 0
0.600981 3.81243 0
1.33659 -0.641483 0
0.534205 2.64715 0
0.961319 1.5744 0
1.90538 0.213194 0
1.60934 1.06486 0
2.12155 7.53914 0
1.78984 8.65925 0
1.34513 9.89293 0
3.78647 -4.30382 0
5.07253 -4.39562 0
5.80229 -3.8947 0
3.75695 -3.17318 0
1.8075 -1.88155 0
3.00202 -2.55839 0
6.7403 -3.9145 0
7.33283 -4.85771 0
7.92142 -5.98597 0
0.484583 5.8426 0
1.42303 6.70008 0
2.36332 6.6304 0
1.20279 4.53351 0
1.48082 3.38538 0
2.42737 -0.690811 0
2.81761 0.142906 0
1.78258 2.15908 0
2.60535 1.14741 0
3.05651 7.12777 0
2.88851 8.32844 0
2.62303 9.64102 0
4.87535 -3.29295 0
6.08039 -3.07952 0
4.14858 -2.26118 0
3.22962 -1.49694 0
6.69367 -2.29964 0
7.19122 -3.02443 0
7.91853 -3.89207 0
8.65144 -4.91882 0
2.01492 5.56775 0
3.06311 6.11534 0
2.3561 4.10611 0
2.41029 3.04878 0
3.50941 -0.459398 0
3.6012 0.6139 0
2.94909 2.27949 0
3.52811 1.51965 0
3.97703 5.85909 0
3.95799 6.75059 0
3.95488 7.8926 0
3.8572 9.22603 0
5.53692 -1.90496 0
4.48556 -1.12417 0
6.67353 -1.32706 0
7.5483 -2.02188 0
8.34804 -2.84635 0
9.22629 -3.7549 0
3.39054 4.84434 0
3.31675 3.3664 0
4.6661 0.131889 0
4.48811 1.30056 0
4.03291 2.42794 0
4.52242 5.11279 0
4.80335 6.14655 0
4.94665 7.33353 0
5.02108 8.65098 0
5.8465 -0.433947 0
6.96072 -0.487202 0
7.71179 -1.07669 0
8.6321 -1.73612 0
9.64054 -2.51988 0
4.50852 3.79735 0
5.76986 1.08342 0
5.31775 2.50989 0
5.31919 4.57826 0
5.55582 5.47875 0
5.84774 6.62238 0
6.08774 7.92122 0
6.7901 0.452147 0
7.7954 -0.0278231 0
8.80441 -0.578384 0
9.89062 -1.241 0
6.89694 1.32925 0
5.65675 3.74103 0
6.47561 2.16916 0
6.30948 3.05174 0
6.22152 4.64112 0
6.62893 5.78607 0
7.05675 7.0613 0
7.7217 0.955094 0
8.79368 0.567131 0
9.96982 0.0550938 0
7.54394 1.97884 0
6.74632 3.85765 0
7.19016 2.91063 0
7.30529 4.839 0
7.9182 6.08821 0
8.6466 1.70922 0
9.87191 1.34335 0
8.3368 2.80553 0
7.90409 3.87492 0
8.64043 5.00916 0
9.62223 2.61588 0
9.21121 3.84571 0
CELLS 542 2168
3 2 0 4
3 0 1 7
3 4 0 7
3 1 5 8
3 7 1 8
3 3 2 13
3 13 2 4
3 11 3 14
3 14 3 13
3 13 4 15
3 4 7 16
3 15 4 16
3 5 6 17
3 8 5 17
3 6 9 18
3 17 6 18
3 7 8 19
3 16 7 19
3 8 17 20
3 19 8 20
3 9 10 23
3 18 9 23
3 10 21 24
3 23 10 24
3 12 11 25
3 25 11 14
3 26 12 27
3 27 12 25
3 14 13 29
3 29 13 15
3 25 14 30
3 30 14 29
3 29 15 31
3 15 16 33
3 31 15 33
3 16 19 34
3 33 16 34
3 17 18 35
3 20 17 35
3 18 23 36
3 35 18 36
3 19 20 37
3 34 19 37
3 20 35 38
3 37 20 38
3 21 22 39
3 24 21 39
3 22 32 40
3 39 22 40
3 23 24 41
3 36 23 41
3 24 39 42
3 41 24 42
3 27 25 44
3 44 25 30
3 28 26 45
3 45 26 27
3 45 27 46
3 46 27 44
3 47 28 48
3 48 28 45
3 30 29 50
3 50 29 31
3 44 30 51
3 51 30 50
3 50 31 52
3 31 33 52
3 32 43 53
3 40 32 53
3 53 43 54
3 33 34 55
3 34 37 55
3 33 55 52
3 35 36 56
3 38 35 56
3 36 41 57
3 56 36 57
3 37 38 58
3 38 56 58
3 37 58 55
3 39 40 59
3 42 39 59
3 40 53 60
3 59 40 60
3 41 42 61
3 57 41 61
3 42 59 62
3 61 42 62
3 43 63 54
3 46 44 64
3 64 44 51
3 48 45 65
3 65 45 46
3 65 46 66
3 66 46 64
3 49 47 67
3 67 47 48
3 67 48 68
3 68 48 65
3 69 49 70
3 70 49 67
3 52 55 72
3 64 51 73
3 51 50 73
3 50 52 73
3 73 52 74
3 74 52 72
3 53 54 75
3 60 53 75
3 54 63 76
3 54 76 77
3 75 54 77
3 55 58 78
3 72 55 78
3 72 78 79
3 56 57 80
3 57 61 80
3 56 80 58
3 58 80 81
3 78 58 81
3 59 60 82
3 62 59 82
3 60 75 83
3 82 60 83
3 61 62 84
3 62 82 84
3 61 84 80
3 63 85 76
3 66 64 86
3 64 73 86
3 68 65 87
3 87 65 66
3 87 66 86
3 70 67 88
3 88 67 68
3 88 68 89
3 89 68 87
3 71 69 90
3 90 69 70
3 90 70 91
3 91 70 88
3 92 71 93
3 93 71 90
3 74 72 94
3 94 72 79
3 86 73 95
3 95 73 74
3 95 74 96
3 96 74 94
3 97 86 95
3 76 85 99
3 75 77 100
3 83 75 100
3 76 99 101
3 77 76 101
3 77 101 102
3 100 77 102
3 94 79 103
3 78 81 104
3 79 78 104
3 79 104 103
3 80 84 105
3 81 80 105
3 81 105 106
3 104 81 106
3 82 83 107
3 83 100 107
3 82 107 84
3 84 107 108
3 105 84 108
3 85 109 99
3 89 87 110
3 87 86 110
3 110 86 97
3 91 88 111
3 111 88 89
3 111 89 110
3 93 90 112
3 112 90 91
3 112 91 113
3 113 91 111
3 98 92 114
3 114 92 93
3 114 93 115
3 115 93 112
3 116 98 114
3 117 103 118
3 96 94 119
3 94 103 119
3 119 103 117
3 97 95 120
3 120 95 96
3 120 96 119
3 121 110 97
3 121 97 122
3 122 97 120
3 123 119 117
3 124 98 116
3 99 109 125
3 99 125 126
3 101 99 126
3 100 102 127
3 100 127 107
3 101 126 128
3 102 101 128
3 102 128 127
3 104 106 129
3 104 129 103
3 103 129 118
3 105 108 130
3 106 105 130
3 106 130 129
3 107 127 131
3 108 107 131
3 108 131 132
3 108 132 130
3 109 134 125
3 125 134 133
3 113 111 135
3 111 110 135
3 135 110 121
3 115 112 136
3 136 112 113
3 136 113 135
3 116 114 137
3 137 114 115
3 137 115 138
3 138 115 136
3 139 124 116
3 139 116 140
3 140 116 137
3 141 135 121
3 118 129 142
3 118 142 143
3 117 118 143
3 123 117 143
3 122 120 144
3 120 119 144
3 144 119 123
3 141 121 145
3 145 121 122
3 145 122 144
3 146 141 145
3 147 144 123
3 147 123 148
3 143 148 123
3 150 124 139
3 149 150 139
3 131 127 151
3 125 133 152
3 126 125 152
3 126 152 153
3 128 126 153
3 128 153 154
3 128 154 127
3 127 154 151
3 152 133 155
3 130 132 156
3 130 156 129
3 129 156 142
3 131 151 157
3 132 131 157
3 132 157 156
3 156 158 142
3 157 151 159
3 133 160 155
3 134 161 133
3 133 161 160
3 138 136 162
3 136 135 162
3 162 135 141
3 140 137 163
3 163 137 138
3 163 138 162
3 149 139 164
3 164 139 140
3 164 140 165
3 165 140 163
3 166 149 164
3 167 162 141
3 167 141 146
3 142 158 168
3 143 142 168
3 143 168 148
3 146 145 169
3 145 144 169
3 169 144 147
3 170 167 146
3 170 146 169
3 171 169 147
3 171 147 148
3 171 148 172
3 168 172 148
3 173 149 166
3 174 150 149
3 173 174 149
3 154 175 151
3 151 175 159
3 152 155 176
3 153 152 176
3 153 176 177
3 153 177 154
3 154 177 175
3 155 160 178
3 155 178 179
3 176 155 179
3 156 157 180
3 156 180 158
3 157 159 181
3 157 181 180
3 158 180 182
3 158 182 168
3 159 175 183
3 159 183 181
3 175 184 183
3 160 186 178
3 178 186 185
3 161 187 160
3 160 187 186
3 165 163 188
3 163 162 188
3 188 162 167
3 166 164 189
3 189 164 165
3 189 165 188
3 190 173 166
3 190 166 191
3 191 166 189
3 192 188 167
3 192 167 170
3 193 192 170
3 182 194 168
3 194 172 168
3 193 170 195
3 170 169 195
3 195 169 171
3 196 195 171
3 196 171 172
3 194 197 172
3 197 198 172
3 198 196 172
3 200 173 190
3 199 200 190
3 201 174 173
3 200 201 173
3 176 179 202
3 177 176 202
3 177 202 175
3 175 202 184
3 178 185 203
3 178 203 179
3 179 203 202
3 203 185 204
3 202 205 184
3 183 206 181
3 180 181 206
3 180 206 182
3 182 206 194
3 183 184 207
3 205 207 184
3 183 207 206
3 185 208 204
3 186 209 185
3 185 209 208
3 187 210 186
3 186 210 209
3 191 189 211
3 189 188 211
3 211 188 192
3 199 190 212
3 212 190 191
3 212 191 211
3 213 199 212
3 214 211 192
3 214 192 193
3 215 214 193
3 215 193 195
3 206 216 194
3 216 197 194
3 216 217 197
3 215 195 218
3 218 195 196
3 198 218 196
3 217 219 197
3 219 218 198
3 197 219 198
3 220 199 213
3 221 200 199
3 220 221 199
3 222 201 200
3 221 222 200
3 203 204 223
3 203 223 202
3 202 223 205
3 204 208 224
3 204 224 223
3 205 223 225
3 205 225 207
3 207 225 226
3 207 226 206
3 226 216 206
3 208 228 224
3 224 228 227
3 209 229 208
3 229 228 208
3 210 230 209
3 209 230 229
3 213 212 231
3 212 211 231
3 231 211 214
3 232 220 213
3 232 213 231
3 233 231 214
3 233 214 215
3 234 233 215
3 234 215 218
3 226 235 216
3 235 217 216
3 235 236 217
3 217 236 219
3 237 234 218
3 237 218 219
3 236 238 219
3 238 237 219
3 240 220 232
3 239 240 232
3 241 221 220
3 240 241 220
3 242 222 221
3 241 242 221
3 224 227 243
3 224 243 223
3 223 243 225
3 225 243 244
3 225 244 226
3 226 244 235
3 227 245 243
3 228 246 227
3 227 246 245
3 229 247 228
3 228 247 246
3 230 248 229
3 229 248 247
3 239 232 249
3 232 231 249
3 249 231 233
3 250 249 233
3 250 233 234
3 237 250 234
3 244 251 235
3 235 251 236
3 251 252 236
3 236 252 238
3 252 253 238
3 253 250 237
3 253 237 238
3 254 239 249
3 255 240 239
3 254 255 239
3 256 241 240
3 255 256 240
3 257 242 241
3 256 257 241
3 245 258 243
3 243 258 244
3 244 258 251
3 245 259 258
3 246 260 245
3 245 260 259
3 247 261 246
3 246 261 260
3 248 262 247
3 247 262 261
3 254 249 263
3 263 249 250
3 253 263 250
3 258 264 251
3 251 264 252
3 264 265 252
3 265 263 253
3 252 265 253
3 266 254 263
3 267 255 254
3 266 267 254
3 268 256 255
3 267 268 255
3 269 257 256
3 268 269 256
3 259 270 258
3 270 264 258
3 260 271 259
3 259 271 270
3 261 272 260
3 260 272 271
3 262 273 261
3 273 272 261
3 270 274 264
3 275 266 263
3 275 263 265
3 274 276 264
3 276 265 264
3 276 277 265
3 277 275 265
3 278 267 266
3 275 278 266
3 279 268 267
3 278 279 267
3 280 269 268
3 279 280 268
3 271 281 270
3 270 281 274
3 272 282 271
3 271 282 281
3 273 283 272
3 272 283 282
3 281 284 274
3 274 284 276
3 285 278 275
3 277 285 275
3 284 286 276
3 286 285 277
3 276 286 277
3 287 279 278
3 285 287 278
3 288 280 279
3 287 288 279
3 282 289 281
3 281 289 284
3 283 290 282
3 282 290 289
3 289 291 284
3 284 291 286
3 291 292 286
3 292 287 285
3 286 292 285
3 293 288 287
3 292 293 287
3 290 294 289
3 289 294 291
3 294 295 291
3 295 293 292
3 291 295 292
CELL_TYPES 542
5
5
5
5
5
5
5
5
5
5
5
5
5
5
5
5
5
5
5
5
5
5
5
5
5
5
5
5
5
5
5
5
5
5
5
5
5
5
5
5
5
5
5
5
5
5
5
5
5
5
5
5
5
5
5
5
5
5
5
5
5
5
5
5
5
5
5
5
5
5
5
5
5
5
5
5
5
5
5
5
5
5
5
5
5
5
5
5
5
5
5
5
5
5
5
5
5
5
5
5
5
5
5
5
5
5
5
5
5
5
5
5
5
5
5
5
5
5
5
5
5
5
5
5
5
5
5
5
5
5
5
5
5
5
5
5
5
5
5
5
5
5
5
5
5
5
5
5
5
5
5
5
5
5
5
5
5
5
5
5
5
5
5
5
5
5
5
5
5
5
5
5
5
5
5
5
5
5
5
5
5
5
5
5
5
5
5
5
5
5
5
5
5
5
5
5
5
5
5
5
5
5
5
5
5
5
5
5
5
5
5
5
5
5
5
5
5
5
5
5
5
5
5
5
5
5
5
5
5
5
5
5
5
5
5
5
5
5
5
5
5
5
5
5
5
5
5
5
5
5
5
5
5
5
5
5
5
5
5
5
5
5
5
5
5
5
5
5
5
5
5
5
5
5
5
5
5
5
5
5
5
5
5
5
5
5
5
5
5
5
5
5
5
5
5
5
5
5
5
5
5
5
5
5
5
5
5
5
5
5
5
5
5
5
5
5
5
5
5
5
5
5
5
5
5
5
5
5
5
5
5
5
5
5
5
5
5
5
5
5
5
5
5
5
5
5
5
5
5
5
5
5
5
5
5
5
5
5
5
5
5
5
5
5
5
5
5
5
5
5
5
5
5
5
5
5
5
5
5
5
5
5
5
5
5
5
5
5
5
5
5
5
5
5
5
5
5
5
5
5
5
5
5
5
5
5
5
5
5
5
5
5
5
5
5
5
5
5
5
5
5
5
5
5
5
5
5
5
5
5
5
5
5
5
5
5
5
5
5
5
5
5
5
5
5
5
5
5
5
5
5
5
5
5
5
5
5
5
5
5
5
5
5
5
5
5
5
5
5
5
5
5
5
5
5
5
5
5
5
5
5
5
5
5
5
5
5
5
5
5
5
5
5
5
5
5
5
5
5
5
5
5
5
5
5
5
5
5
5
5
5
5
5
5
5
5
5
5
5
5
5
5
5
5
5
5
5
5
5
5
5
5
5
5
5
5
5
5
5
5
5
5
POINT_DATA 296
SCALARS concentrations float 4
LOOKUP_TABLE default
0 0.984281 0.187902 17.3365
0 0.984286 0.186562 16.4835
0 0.984248 0.186806 10.4252
0 0.984207 0.18982 17.9639
0 0.984176 0.103013 5.69842
0 0.984166 0.191839 16.5917
0 0.984162 0.193691 15.5189
0 0.984214 0.107198 5.32289
0 0.984218 0.108 10.1571
0 0.98421 0.183118 5.0366
0 0.984244 0.182344 9.16157
0 0.984173 0.187561 10.2965
0 0.984148 0.183725 10.1573
0 0.984191 0.0962159 9.28289
0 0.984188 0.0954638 7.84323
0 0.984062 0.0988892 9.68914
0 0.984015 0.108756 9.58585
0 0.984166 0.0972444 8.9615
0 0.984184 0.094916 8.66479
0 0.984089 0.106751 6.71522
0 0.984135 0.0970349 7.39883
0 0.984191 0.197079 22.9598
0 0.984096 0.20019 21.0906
0 0.984219 0.0948386 5.82969
0 0.984195 0.0952186 5.83533
0 0.984174 0.0963261 7.4372
0 0.984132 0.186979 18.0343
0 0.984155 0.0958961 5.78332
0 0.983993 0.180622 33.7471
0 0.984122 0.0958697 8.14935
0 0.984154 0.0962899 7.90415
0 0.984013 0.0972075 6.81288
0 0.983994 0.196253 21.0068
0 0.983988 0.0965967 6.07163
0 0.983974 0.103947 6.07581
0 0.984126 0.100081 4.50824
0 0.984144 0.094926 5.76251
0 0.984019 0.0964751 5.94557
0 0.984044 0.0959406 5.70979
0 0.984119 0.0945051 5.98888
0 0.984027 0.0950822 6.20725
0 0.984146 0.0952972 7.59137
0 0.984109 0.0970658 6.96275
0 0.98405 0.180869 29.9932
0 0.984168 0.0973571 8.74664
0 0.98412 0.0957293 8.03381
0 0.984148 0.0995309 8.61486
0 0.983818 0.180656 26.5508
0 0.983983 0.101022 6.23902
0 0.983888 0.188111 24.1505
0 0.984047 0.0968921 8.427
0 0.984101 0.0977839 6.33372
0 0.984009 0.0951656 6.4327
0 0.984003 0.0949536 7.87151
0 0.984059 0.0947019 7.87359
0 0.984008 0.0955568 6.06752
0 0.984055 0.0977328 7.16511
0 0.984062 0.0962328 7.75187
0 0.984022 0.0953291 7.83354
0 0.984062 0.0959986 8.90412
0 0.984031 0.0958393 5.78376
0 0.984057 0.0963613 6.88843
0 0.984065 0.0979522 8.88258
0 0.984099 0.195196 22.6213
0 0.984086 0.0979805 6.87923
0 0.984119 0.100179 8.04466
0 0.984087 0.0965241 7.94072
0 0.983945 0.0953997 8.02492
0 0.984091 0.0963509 7.81706
0 0.984071 0.186367 22.7018
0 0.984024 0.0952931 7.34994
0 0.984252 0.184355 10.6226
0 0.98402 0.0938164 6.28785
0 0.984044 0.0962388 7.85455
0 0.984038 0.0940384 6.3028
0 0.984037 0.0959552 5.97263
0 0.984106 0.0954992 6.65541
0 0.984067 0.0950835 7.05474
0 0.984016 0.0948233 6.97408
0 0.984039 0.0952075 6.9405
0 0.984029 0.0973948 6.29231
0 0.984033 0.0955547 5.75694
0 0.984046 0.10113 3.68087
0 0.984057 0.0958103 6.81591
0 0.984038 0.0968814 5.43659
0 0.98411 0.183212 12.2501
0 0.984056 0.0964932 8.02324
0 0.984073 0.0957037 7.91101
0 0.98409 0.096026 7.26796
0 0.984081 0.0960732 6.94866
0 0.984176 0.0949577 7.14731
0 0.984123 0.0974596 6.8462
0 0.984178 0.180491 13.1829
0 0.984217 0.101677 9.71352
0 0.984045 0.0938159 6.5813
0 0.984063 0.0943687 8.07573
0 0.984048 0.0946177 7.02428
0 0.984064 0.0950006 7.07211
0 0.984003 0.191192 30.4727
0 0.9841 0.0957009 8.09706
0 0.984069 0.096114 7.94349
0 0.9841 0.0958152 7.4403
0 0.984059 0.0952538 7.4
0 0.984071 0.0943079 6.92797
0 0.984056 0.0981006 7.14171
0 0.984048 0.0939971 6.51123
0 0.984073 0.0936724 6.76651
0 0.984048 0.0964329 7.45239
0 0.984055 0.0944538 7.81178
0 0.984021 0.187061 22.8835
0 0.984057 0.0943125 6.79837
0 0.984079 0.10254 3.03469
0 0.984145 0.0974361 6.78764
0 0.98408 0.0976467 7.42321
0 0.984118 0.102732 10.7523
0 0.984158 0.107354 5.00953
0 0.984023 0.0960051 7.25276
0 0.98409 0.0935977 6.61265
0 0.984093 0.0945529 6.83517
0 0.984061 0.0946105 6.43138
0 0.984066 0.0952297 7.73266
0 0.984058 0.0938751 8.02165
0 0.984071 0.0949978 8.05487
0 0.984088 0.0943127 6.14283
0 0.984022 0.194993 20.7712
0 0.98403 0.0995833 8.75843
0 0.984114 0.0977602 6.80619
0 0.984048 0.0957756 6.97638
0 0.984085 0.102399 6.32298
0 0.984083 0.0947199 7.25622
0 0.984071 0.0932761 7.24263
0 0.984046 0.0938807 6.71774
0 0.984061 0.0935713 6.52244
0 0.984037 0.0962892 7.90521
0 0.983991 0.190817 29.2399
0 0.984055 0.0947555 6.99233
0 0.984092 0.0974562 6.31351
0 0.984109 0.0954111 6.75986
0 0.984119 0.10161 11.0737
0 0.984093 0.0949659 6.38485
0 0.984084 0.095824 7.77089
0 0.98406 0.0958531 7.09406
0 0.98409 0.0953025 7.20818
0 0.984107 0.0940703 6.09338
0 0.984073 0.100152 7.80839
0 0.984071 0.095115 5.53148
0 0.984071 0.0954911 7.5619
0 0.984091 0.0953577 8.87078
0 0.984122 0.0938707 6.75166
0 0.984113 0.0946672 6.14127
0 0.984126 0.191437 18.2077
0 0.984038 0.0939407 7.35442
0 0.984078 0.103415 8.94338
0 0.984107 0.0998876 7.85123
0 0.984061 0.0958063 7.62136
0 0.984065 0.097786 6.71247
0 0.984069 0.0949358 7.32008
0 0.984052 0.0951422 6.64086
0 0.984084 0.0959619 7.69887
0 0.984059 0.0942526 7.2296
0 0.984047 0.0980475 8.16157
0 0.984052 0.193575 24.1504
0 0.984072 0.0974144 6.50225
0 0.984086 0.0970351 7.33062
0 0.984091 0.0944978 7.49075
0 0.984078 0.0948043 7.12502
0 0.984093 0.094378 8.05041
0 0.984076 0.0940172 7.38035
0 0.984107 0.0950976 5.88652
0 0.984084 0.0948669 6.29256
0 0.984086 0.0948888 7.22873
0 0.984116 0.0936704 7.72922
0 0.984124 0.0931865 6.65858
0 0.984141 0.0945132 8.5041
0 0.984122 0.192848 20.9629
0 0.984036 0.0955467 7.70696
0 0.984076 0.102913 11.1569
0 0.984052 0.0970569 7.55444
0 0.984045 0.0961505 7.99133
0 0.984053 0.096311 7.29221
0 0.984071 0.0978993 7.22712
0 0.984056 0.0980869 8.2483
0 0.984098 0.0971197 7.95145
0 0.984037 0.0973228 8.30391
0 0.984025 0.0948448 7.56881
0 0.984043 0.0959388 6.88572
0 0.983982 0.0958935 8.0611
0 0.983991 0.194871 25.9454
0 0.984075 0.0936179 7.25262
0 0.984072 0.0948713 5.94812
0 0.984112 0.0955438 5.94949
0 0.984062 0.0954142 6.03703
0 0.984078 0.0945975 7.20534
0 0.984081 0.0950218 6.48766
0 0.9841 0.0951171 7.84454
0 0.984093 0.0953558 6.24439
0 0.984114 0.0938051 7.62803
0 0.984103 0.0946356 7.80326
0 0.984104 0.0957118 6.28806
0 0.984139 0.0949555 8.36753
0 0.984195 0.0950608 5.92546
0 0.984207 0.185637 9.98573
0 0.984033 0.0966815 6.89611
0 0.984043 0.0953346 7.57885
0 0.984047 0.0964982 6.90527
0 0.98403 0.0943924 7.70689
0 0.984058 0.0967496 6.12836
0 0.984025 0.0966027 8.01135
0 0.984042 0.0957416 7.60955
0 0.98405 0.0950442 6.88098
0 0.983955 0.184486 23.1469
0 0.984065 0.0952829 7.87905
0 0.984083 0.0999298 8.53742
0 0.984109 0.0973539 6.12342
0 0.984068 0.0949576 6.33443
0 0.984074 0.0953798 6.40372
0 0.984084 0.0946118 6.87446
0 0.984094 0.0953439 7.39782
0 0.984085 0.0945798 7.14911
0 0.984092 0.0978304 6.61397
0 0.98413 0.0952253 7.03441
0 0.984152 0.0949081 6.09143
0 0.984213 0.189864 17.4732
0 0.984056 0.0966621 6.51223
0 0.98404 0.100309 9.73972
0 0.984059 0.0978883 5.93622
0 0.984056 0.0969976 6.71313
0 0.98402 0.0963125 6.93837
0 0.984021 0.0963178 5.83533
0 0.984119 0.0957029 6.18586
0 0.984141 0.188565 11.0035
0 0.984076 0.0965937 6.81946
0 0.984101 0.0955874 8.32377
0 0.984074 0.100748 4.86508
0 0.984076 0.0947649 6.9365
0 0.984081 0.0937595 7.16955
0 0.984082 0.0952216 6.95298
0 0.984075 0.0985205 8.77026
0 0.984081 0.0949645 7.6824
0 0.98413 0.0951988 7.99796
0 0.984122 0.0949864 8.42275
0 0.984059 0.0950295 5.67376
0 0.984072 0.180111 13.4916
0 0.984069 0.106327 9.81654
0 0.984068 0.0942185 7.02374
0 0.984046 0.103177 9.95191
0 0.98401 0.0952302 6.5367
0 0.984088 0.0961409 6.16663
0 0.984152 0.188852 23.0711
0 0.984086 0.0970267 7.40688
0 0.984069 0.10111 5.84941
0 0.984065 0.0946622 6.95411
0 0.984059 0.0939573 7.03758
0 0.984055 0.094025 7.79297
0 0.984116 0.10103 7.58219
0 0.984154 0.0950612 8.21116
0 0.984061 0.0947556 7.38268
0 0.983977 0.1874 20.8322
0 0.984064 0.0967304 6.49851
0 0.984056 0.0974177 7.14036
0 0.984026 0.0962381 6.84812
0 0.984042 0.0958779 7.76624
0 0.984131 0.184552 27.9936
0 0.984064 0.0967053 7.68823
0 0.98406 0.0947096 6.38557
0 0.984063 0.0969756 5.7402
0 0.984096 0.100252 4.51401
0 0.984164 0.0958305 9.02115
0 0.984123 0.0952242 8.55334
0 0.984042 0.189256 26.9585
0 0.984057 0.0958777 6.24052
0 0.984044 0.0961198 7.30847
0 0.983999 0.0954513 7.96102
0 0.983992 0.18388 19.3984
0 0.98405 0.0965242 7.48761
0 0.98408 0.0988148 6.63989
0 0.984052 0.0964263 9.42956
0 0.984069 0.0962471 8.50226
0 0.984144 0.097292 7.86189
0 0.984148 0.0960691 6.33521
0 0.984099 0.18244 6.86202
0 0.984056 0.095409 8.28469
0 0.984109 0.0950139 6.74498
0 0.98405 0.188183 17.0803
0 0.98405 0.0957559 8.80294
0 0.9841 0.0987938 6.30269
0 0.984056 0.0965767 9.41611
0 0.98412 0.0988685 10.5086
0 0.984115 0.186996 15.4499
0 0.984203 0.0954888 7.86571
0 0.984253 0.18111 15.8441
0 0.984174 0.0967976 7.02768
0 0.984075 0.0974642 9.65712
0 0.984057 0.183778 13.6662
0 0.984335 0.185109 18.5003
0 0.984162 0.183973 29.0039
VECTORS fa_u float
0.00635583 0.00260096 -0
0.00605627 0.00349113 -0
0.00515341 0.00138667 -0
0.0065627 0.000913567 -0
1e-08 0 0
0.00517386 0.00397955 -0
0.00379949 0.00375666 -0
1e-08 0 0
1e-08 0 0
0.00427295 0.00544943 -0
0.00383105 0.00657865 -0
0.0066345 4.61286e-05 -0
0.00635561 -0.000787714 0
1e-08 0 0
1e-08 0 0
1e-08 0 0
1e-08 0 0
1e-08 0 0
1e-08 0 0
1e-08 0 0
1e-08 0 0
0.00260765 0.00634154 -0
0.00166428 0.0063072 -0
1e-08 0 0
1e-08 0 0
1e-08 0 0
0.00717833 -0.00188909 0
1e-08 0 0
0.00744537 -0.00314491 0
1e-08 0 0
1e-08 0 0
1e-08 0 0
0.000855646 0.00673865 -0
1e-08 0 0
1e-08 0 0
1e-08 0 0
1e-08 0 0
1e-08 0 0
1e-08 0 0
1e-08 0 0
1e-08 0 0
1e-08 0 0
1e-08 0 0
-5.16297e-05 0.00693407 -0
1e-08 0 0
1e-08 0 0
1e-08 0 0
0.005578 -0.00332409 0
1e-08 0 0
0.00435442 -0.0033951 0
1e-08 0 0
1e-08 0 0
1e-08 0 0
1e-08 0 0
1e-08 0 0
1e-08 0 0
1e-08 0 0
1e-08 0 0
1e-08 0 0
1e-08 0 0
1e-08 0 0
1e-08 0 0
1e-08 0 0
-0.000764959 0.00561402 0
1e-08 0 0
1e-08 0 0
1e-08 0 0
1e-08 0 0
1e-08 0 0
0.00411938 -0.00410644 0
1e-08 0 0
0.00354362 -0.00452433 0
1e-08 0 0
1e-08 0 0
1e-08 0 0
1e-08 0 0
1e-08 0 0
1e-08 0 0
1e-08 0 0
1e-08 0 0
1e-08 0 0
1e-08 0 0
1e-08 0 0
1e-08 0 0
1e-08 0 0
-0.00159873 0.00601903 0
1e-08 0 0
1e-08 0 0
1e-08 0 0
1e-08 0 0
1e-08 0 0
1e-08 0 0
0.00403 -0.00685709 0
1e-08 0 0
1e-08 0 0
1e-08 0 0
1e-08 0 0
1e-08 0 0
0.00281657 -0.00685548 0
1e-08 0 0
1e-08 0 0
1e-08 0 0
1e-08 0 0
1e-08 0 0
1e-08 0 0
1e-08 0 0
1e-08 0 0
1e-08 0 0
1e-08 0 0
-0.00259776 0.00632119 0
1e-08 0 0
1e-08 0 0
1e-08 0 0
1e-08 0 0
1e-08 0 0
1e-08 0 0
1e-08 0 0
1e-08 0 0
1e-08 0 0
1e-08 0 0
1e-08 0 0
1e-08 0 0
1e-08 0 0
1e-08 0 0
0.00159093 -0.00606667 0
1e-08 0 0
1e-08 0 0
1e-08 0 0
1e-08 0 0
1e-08 0 0
1e-08 0 0
1e-08 0 0
1e-08 0 0
1e-08 0 0
-0.00341423 0.00591646 0
1e-08 0 0
1e-08 0 0
1e-08 0 0
1e-08 0 0
1e-08 0 0
1e-08 0 0
1e-08 0 0
1e-08 0 0
1e-08 0 0
1e-08 0 0
1e-08 0 0
1e-08 0 0
1e-08 0 0
1e-08 0 0
1e-08 0 0
0.000728547 -0.005455 0
1e-08 0 0
1e-08 0 0
1e-08 0 0
1e-08 0 0
1e-08 0 0
1e-08 0 0
1e-08 0 0
1e-08 0 0
1e-08 0 0
1e-08 0 0
-0.00419443 0.0054386 0
1e-08 0 0
1e-08 0 0
1e-08 0 0
1e-08 0 0
1e-08 0 0
1e-08 0 0
1e-08 0 0
1e-08 0 0
1e-08 0 0
1e-08 0 0
1e-08 0 0
1e-08 0 0
3.65888e-05 -0.00699612 0
1e-08 0 0
1e-08 0 0
1e-08 0 0
1e-08 0 0
1e-08 0 0
1e-08 0 0
1e-08 0 0
1e-08 0 0
1e-08 0 0
1e-08 0 0
1e-08 0 0
1e-08 0 0
-0.0037593 0.00377996 0
1e-08 0 0
1e-08 0 0
1e-08 0 0
1e-08 0 0
1e-08 0 0
1e-08 0 0
1e-08 0 0
1e-08 0 0
1e-08 0 0
1e-08 0 0
1e-08 0 0
1e-08 0 0
1e-08 0 0
-0.00086044 -0.00666063 0
1e-08 0 0
1e-08 0 0
1e-08 0 0
1e-08 0 0
1e-08 0 0
1e-08 0 0
1e-08 0 0
1e-08 0 0
-0.00505604 0.00396156 0
1e-08 0 0
1e-08 0 0
1e-08 0 0
1e-08 0 0
1e-08 0 0
1e-08 0 0
1e-08 0 0
1e-08 0 0
1e-08 0 0
1e-08 0 0
1e-08 0 0
-0.0016525 -0.00622465 0
1e-08 0 0
1e-08 0 0
1e-08 0 0
1e-08 0 0
1e-08 0 0
1e-08 0 0
1e-08 0 0
-0.00661587 0.0038694 0
1e-08 0 0
1e-08 0 0
1e-08 0 0
1e-08 0 0
1e-08 0 0
1e-08 0 0
1e-08 0 0
1e-08 0 0
1e-08 0 0
1e-08 0 0
1e-08 0 0
-0.00264608 -0.00640924 0
1e-08 0 0
1e-08 0 0
1e-08 0 0
1e-08 0 0
1e-08 0 0
-0.00646615 0.00266603 0
1e-08 0 0
1e-08 0 0
1e-08 0 0
1e-08 0 0
1e-08 0 0
1e-08 0 0
1e-08 0 0
1e-08 0 0
-0.0038648 -0.00660677 0
1e-08 0 0
1e-08 0 0
1e-08 0 0
1e-08 0 0
-0.00629713 0.0016641 0
1e-08 0 0
1e-08 0 0
1e-08 0 0
1e-08 0 0
1e-08 0 0
1e-08 0 0
-0.00375203 -0.00480466 0
1e-08 0 0
1e-08 0 0
1e-08 0 0
-0.00662812 0.000847579 0
1e-08 0 0
1e-08 0 0
1e-08 0 0
1e-08 0 0
1e-08 0 0
1e-08 0 0
-0.00393784 -0.00393235 0
1e-08 0 0
1e-08 0 0
-0.00720404 -5.21651e-05 0
1e-08 0 0
1e-08 0 0
1e-08 0 0
1e-08 0 0
-0.00551434 -0.00425552 0
1e-08 0 0
-0.00530476 -0.000720037 0
1e-08 0 0
1e-08 0 0
-0.0059503 -0.00343092 0
-0.00616228 -0.00162702 0
-0.00634221 -0.00260179 0
