# vtk DataFile Version 2.0
CellBP Time: 3.88
ASCII
DATASET UNSTRUCTURED_GRID
POINTS 296 double
-9.00167 -3.69931 0
-8.43474 -4.8487 0
-9.41379 -2.4858 0
-9.66466 -1.22893 0
-8.35762 -2.81872 0
-7.72311 -5.91457 0
-6.87828 -6.87829 0
-7.91728 -3.87474 0
-7.34273 -4.86789 0
-5.91472 -7.72333 0
-4.84919 -8.43544 0
-9.74898 0.0500644 0
-9.66512 1.329 0
-8.65772 -1.68395 0
-8.78637 -0.529624 0
-7.58975 -2.00414 0
-7.2258 -2.90649 0
-6.63772 -5.77896 0
-5.82249 -6.597 0
-6.79034 -3.88894 0
-6.22065 -4.67596 0
-3.69909 -9.00115 0
-2.48593 -9.4144 0
-4.90654 -7.30893 0
-3.91307 -7.88637 0
-8.79283 0.643405 0
-9.41554 2.5862 0
-8.62336 1.7741 0
-9.00298 3.79982 0
-7.74435 -0.928991 0
-7.79459 0.0802615 0
-6.95263 -1.31589 0
-1.22897 -9.66432 0
-6.44155 -2.15314 0
-6.31945 -3.05616 0
-5.53661 -5.47464 0
-4.79597 -6.11556 0
-5.6591 -3.75705 0
-5.26946 -4.56164 0
-2.8662 -8.36408 0
-1.77859 -8.64038 0
-3.9282 -6.72366 0
-3.05666 -7.15273 0
0.0500424 -9.74864 0
-7.70559 1.14353 0
-8.3387 2.91547 0
-7.55199 2.112 0
-8.43644 4.94969 0
-7.8802 3.9783 0
-7.72462 6.01571 0
-6.77879 -0.396865 0
-6.95663 0.552561 0
-5.77151 -1.00342 0
-0.590847 -8.80988 0
0.565694 -8.77107 0
-5.30323 -2.48032 0
-4.49203 -5.09581 0
-3.90256 -5.77541 0
-4.439 -3.80483 0
-2.06245 -7.5621 0
-1.1355 -7.78601 0
-2.99459 -6.10218 0
-2.30905 -6.61992 0
1.3291 -9.66582 0
-6.68958 1.42208 0
-7.17232 3.11818 0
-6.65939 2.37305 0
-7.29492 4.98879 0
-6.71824 4.00316 0
-6.87955 6.97952 0
-6.57269 5.89433 0
-5.91556 7.82447 0
-4.45318 -1.18108 0
-5.81473 0.51377 0
-4.65623 -0.0103736 0
0.00851144 -7.8483 0
1.73862 -8.64407 0
0.948986 -7.76365 0
-4.03858 -2.40642 0
-3.48558 -1.39121 0
-3.29457 -4.80545 0
-3.26592 -3.26783 0
-1.37861 -6.67564 0
-0.508759 -7.02515 0
-1.97559 -5.53718 0
2.58626 -9.41549 0
-5.50749 2.03698 0
-6.0949 3.0723 0
-6.1053 4.8698 0
-5.76191 3.99161 0
-5.76154 6.71743 0
-5.45234 5.6196 0
-4.84988 8.53689 0
-4.83869 7.40492 0
-3.50153 -0.424297 0
-4.44939 1.24907 0
-3.71152 0.592094 0
-4.06226 2.31988 0
-3.70014 9.10369 0
2.86274 -8.33323 0
0.419702 -6.79568 0
2.02211 -7.52618 0
1.30613 -6.90585 0
-2.44469 -0.873812 0
-2.83841 -2.13115 0
-2.29445 -4.09747 0
-2.32567 -2.97364 0
-0.44239 -5.86138 0
-1.22275 -4.49925 0
3.80026 -9.0039 0
-4.78999 3.39194 0
-5.08816 4.59436 0
-4.6474 6.28177 0
-4.53908 5.35999 0
-3.84395 7.99384 0
-3.82695 6.8461 0
-2.78348 8.42336 0
-1.64903 -0.137886 0
-1.45025 -0.890576 0
-2.48914 0.507278 0
-3.25367 1.44419 0
-3.23912 3.31667 0
-2.91102 2.37182 0
-1.35509 0.627119 0
-2.48626 9.51538 0
3.93294 -7.88746 0
2.96473 -7.15817 0
0.954137 -5.82228 0
2.07444 -6.41585 0
-1.68299 -1.99207 0
-1.43445 -3.27783 0
0.0902304 -4.74715 0
-0.566184 -3.69451 0
4.93248 -7.31929 0
4.94984 -8.43683 0
-3.77714 4.55186 0
-3.73497 5.75247 0
-2.88816 7.29034 0
-3.00988 6.35411 0
-1.66267 8.73427 0
-1.94024 7.61988 0
-2.33846 4.05183 0
-0.730727 -1.32724 0
-0.836888 -0.257613 0
-1.93622 1.68081 0
-2.1258 2.87591 0
-1.30659 3.54479 0
-0.869452 1.35084 0
-0.282358 0.45605 0
-0.533559 8.87235 0
-1.22902 9.76542 0
1.11283 -4.57479 0
3.91043 -6.71779 0
2.98811 -6.09515 0
2.11799 -5.42526 0
4.78481 -6.20584 0
-0.55886 -2.47684 0
0.495129 -3.46392 0
0.0535566 -1.61048 0
1.48194 -3.68226 0
5.86767 -6.61523 0
6.01584 -7.72463 0
-2.47583 5.34881 0
-2.1306 6.53492 0
-0.90414 7.80392 0
-1.27244 6.93257 0
0.0862154 7.88103 0
-1.1445 4.49492 0
0.150322 -0.617648 0
-0.797428 2.48856 0
-0.331643 3.60084 0
0.0631196 1.51274 0
0.741448 0.473425 0
0.646844 8.87504 0
0.0500853 9.85012 0
2.38113 -4.28548 0
3.8595 -5.64089 0
3.00167 -5.21314 0
5.57429 -5.49235 0
4.69146 -5.28354 0
0.629688 -2.2934 0
1.25621 -2.95132 0
0.757494 -1.39146 0
2.16443 -3.13595 0
2.99393 -3.47677 0
6.15583 -4.79229 0
6.6563 -5.76993 0
6.98059 -6.88056 0
-1.01971 5.8208 0
-0.372644 6.88422 0
1.12274 7.77036 0
0.55803 7.08049 0
-0.000759163 4.72546 0
0.607036 3.82799 0
1.33894 -0.641904 0
0.539126 2.65113 0
0.966113 1.57496 0
1.91024 0.213869 0
1.61481 1.06504 0
2.12965 7.58447 0
1.79942 8.71344 0
1.32917 9.76593 0
3.82315 -4.35199 0
5.11713 -4.4495 0
5.84642 -3.93558 0
3.78428 -3.2013 0
1.81234 -1.8827 0
3.01933 -2.57405 0
6.78425 -3.94837 0
7.38243 -4.89743 0
7.82479 -5.91599 0
0.483404 5.88214 0
1.42835 6.74273 0
2.37464 6.66994 0
1.21008 4.55654 0
1.48827 3.39784 0
2.43591 -0.692049 0
2.82819 0.142607 0
1.78898 2.16295 0
2.61203 1.1502 0
3.07246 7.17115 0
2.90466 8.37807 0
2.58671 9.5166 0
4.91185 -3.32826 0
6.12154 -3.1091 0
4.17326 -2.27547 0
3.24467 -1.50302 0
6.73238 -2.31338 0
7.23321 -3.043 0
7.9662 -3.91287 0
8.53629 -4.84961 0
2.02387 5.60054 0
3.087 6.15458 0
2.36416 4.12734 0
2.42028 3.06113 0
3.52597 -0.460902 0
3.61602 0.613336 0
2.96209 2.28827 0
3.54592 1.5254 0
4.01296 5.89926 0
3.98532 6.7946 0
3.97417 7.94041 0
3.80105 9.10546 0
5.56969 -1.91644 0
4.50977 -1.12974 0
6.7153 -1.33637 0
7.59417 -2.03684 0
8.39902 -2.86197 0
9.10317 -3.69987 0
3.41972 4.87787 0
3.33945 3.38583 0
4.69191 0.13009 0
4.51981 1.31015 0
4.06591 2.44415 0
4.57173 5.15378 0
4.84501 6.19248 0
4.98179 7.38245 0
4.95101 8.53894 0
5.88469 -0.434981 0
7.01272 -0.488362 0
7.76168 -1.08557 0
8.6872 -1.74639 0
9.51624 -2.48634 0
4.55349 3.82845 0
5.81914 1.09884 0
5.37256 2.53555 0
5.38179 4.62206 0
5.614 5.52535 0
5.89907 6.67403 0
6.0157 7.8248 0
6.84824 0.463682 0
7.85593 -0.025646 0
8.86324 -0.584512 0
9.76666 -1.22919 0
6.96288 1.3499 0
5.72305 3.77974 0
6.54373 2.19825 0
6.38251 3.0891 0
6.29479 4.68873 0
6.69549 5.83994 0
6.98003 6.97985 0
7.78721 0.967962 0
8.86259 0.572953 0
9.85027 0.0499973 0
7.61913 2.00505 0
6.83187 3.9058 0
7.27241 2.94795 0
7.38113 4.88762 0
7.82679 6.0173 0
8.7262 1.72755 0
9.76642 1.32921 0
8.42414 2.83883 0
7.98465 3.91778 0
8.53818 4.95074 0
9.51612 2.58649 0
9.10455 3.80059 0
CELLS 542 2168
3 2 0 4
3 0 1 7
3 4 0 7
3 1 5 8
3 7 1 8
3 3 2 13
3 13 2 4
3 11 3 14
3 14 3 13
3 13 4 15
3 4 7 16
3 15 4 16
3 5 6 17
3 8 5 17
3 6 9 18
3 17 6 18
3 7 8 19
3 16 7 19
3 8 17 20
3 19 8 20
3 9 10 23
3 18 9 23
3 10 21 24
3 23 10 24
3 12 11 25
3 25 11 14
3 26 12 27
3 27 12 25
3 14 13 29
3 29 13 15
3 25 14 30
3 30 14 29
3 29 15 31
3 15 16 33
3 31 15 33
3 16 19 34
3 33 16 34
3 17 18 35
3 20 17 35
3 18 23 36
3 35 18 36
3 19 20 37
3 34 19 37
3 20 35 38
3 37 20 38
3 21 22 39
3 24 21 39
3 22 32 40
3 39 22 40
3 23 24 41
3 36 23 41
3 24 39 42
3 41 24 42
3 27 25 44
3 44 25 30
3 28 26 45
3 45 26 27
3 45 27 46
3 46 27 44
3 47 28 48
3 48 28 45
3 30 29 50
3 50 29 31
3 44 30 51
3 51 30 50
3 50 31 52
3 31 33 52
3 32 43 53
3 40 32 53
3 53 43 54
3 33 34 55
3 34 37 55
3 33 55 52
3 35 36 56
3 38 35 56
3 36 41 57
3 56 36 57
3 37 38 58
3 38 56 58
3 37 58 55
3 39 40 59
3 42 39 59
3 40 53 60
3 59 40 60
3 41 42 61
3 57 41 61
3 42 59 62
3 61 42 62
3 43 63 54
3 46 44 64
3 64 44 51
3 48 45 65
3 65 45 46
3 65 46 66
3 66 46 64
3 49 47 67
3 67 47 48
3 67 48 68
3 68 48 65
3 69 49 70
3 70 49 67
3 52 55 72
3 64 51 73
3 51 50 73
3 50 52 73
3 73 52 74
3 74 52 72
3 53 54 75
3 60 53 75
3 54 63 76
3 54 76 77
3 75 54 77
3 55 58 78
3 72 55 78
3 72 78 79
3 56 57 80
3 57 61 80
3 56 80 58
3 58 80 81
3 78 58 81
3 59 60 82
3 62 59 82
3 60 75 83
3 82 60 83
3 61 62 84
3 62 82 84
3 61 84 80
3 63 85 76
3 66 64 86
3 64 73 86
3 68 65 87
3 87 65 66
3 87 66 86
3 70 67 88
3 88 67 68
3 88 68 89
3 89 68 87
3 71 69 90
3 90 69 70
3 90 70 91
3 91 70 88
3 92 71 93
3 93 71 90
3 74 72 94
3 94 72 79
3 86 73 95
3 95 73 74
3 95 74 96
3 96 74 94
3 97 86 95
3 76 85 99
3 75 77 100
3 83 75 100
3 76 99 101
3 77 76 101
3 77 101 102
3 100 77 102
3 94 79 103
3 78 81 104
3 79 78 104
3 79 104 103
3 80 84 105
3 81 80 105
3 81 105 106
3 104 81 106
3 82 83 107
3 83 100 107
3 82 107 84
3 84 107 108
3 105 84 108
3 85 109 99
3 89 87 110
3 87 86 110
3 110 86 97
3 91 88 111
3 111 88 89
3 111 89 110
3 93 90 112
3 112 90 91
3 112 91 113
3 113 91 111
3 98 92 114
3 114 92 93
3 114 93 115
3 115 93 112
3 116 98 114
3 117 103 118
3 96 94 119
3 94 103 119
3 119 103 117
3 97 95 120
3 120 95 96
3 120 96 119
3 121 110 97
3 121 97 122
3 122 97 120
3 123 119 117
3 124 98 116
3 99 109 125
3 99 125 126
3 101 99 126
3 100 102 127
3 100 127 107
3 101 126 128
3 102 101 128
3 102 128 127
3 104 106 129
3 104 129 103
3 103 129 118
3 105 108 130
3 106 105 130
3 106 130 129
3 107 127 131
3 108 107 131
3 108 131 132
3 108 132 130
3 109 134 125
3 125 134 133
3 113 111 135
3 111 110 135
3 135 110 121
3 115 112 136
3 136 112 113
3 136 113 135
3 116 114 137
3 137 114 115
3 137 115 138
3 138 115 136
3 139 124 116
3 139 116 140
3 140 116 137
3 141 135 121
3 118 129 142
3 118 142 143
3 117 118 143
3 123 117 143
3 122 120 144
3 120 119 144
3 144 119 123
3 141 121 145
3 145 121 122
3 145 122 144
3 146 141 145
3 147 144 123
3 147 123 148
3 143 148 123
3 150 124 139
3 149 150 139
3 131 127 151
3 125 133 152
3 126 125 152
3 126 152 153
3 128 126 153
3 128 153 154
3 128 154 127
3 127 154 151
3 152 133 155
3 130 132 156
3 130 156 129
3 129 156 142
3 131 151 157
3 132 131 157
3 132 157 156
3 156 158 142
3 157 151 159
3 133 160 155
3 134 161 133
3 133 161 160
3 138 136 162
3 136 135 162
3 162 135 141
3 140 137 163
3 163 137 138
3 163 138 162
3 149 139 164
3 164 139 140
3 164 140 165
3 165 140 163
3 166 149 164
3 167 162 141
3 167 141 146
3 142 158 168
3 143 142 168
3 143 168 148
3 146 145 169
3 145 144 169
3 169 144 147
3 170 167 146
3 170 146 169
3 171 169 147
3 171 147 148
3 171 148 172
3 168 172 148
3 173 149 166
3 174 150 149
3 173 174 149
3 154 175 151
3 151 175 159
3 152 155 176
3 153 152 176
3 153 176 177
3 153 177 154
3 154 177 175
3 155 160 178
3 155 178 179
3 176 155 179
3 156 157 180
3 156 180 158
3 157 159 181
3 157 181 180
3 158 180 182
3 158 182 168
3 159 175 183
3 159 183 181
3 175 184 183
3 160 186 178
3 178 186 185
3 161 187 160
3 160 187 186
3 165 163 188
3 163 162 188
3 188 162 167
3 166 164 189
3 189 164 165
3 189 165 188
3 190 173 166
3 190 166 191
3 191 166 189
3 192 188 167
3 192 167 170
3 193 192 170
3 182 194 168
3 194 172 168
3 193 170 195
3 170 169 195
3 195 169 171
3 196 195 171
3 196 171 172
3 194 197 172
3 197 198 172
3 198 196 172
3 200 173 190
3 199 200 190
3 201 174 173
3 200 201 173
3 176 179 202
3 177 176 202
3 177 202 175
3 175 202 184
3 178 185 203
3 178 203 179
3 179 203 202
3 203 185 204
3 202 205 184
3 183 206 181
3 180 181 206
3 180 206 182
3 182 206 194
3 183 184 207
3 205 207 184
3 183 207 206
3 185 208 204
3 186 209 185
3 185 209 208
3 187 210 186
3 186 210 209
3 191 189 211
3 189 188 211
3 211 188 192
3 199 190 212
3 212 190 191
3 212 191 211
3 213 199 212
3 214 211 192
3 214 192 193
3 215 214 193
3 215 193 195
3 206 216 194
3 216 197 194
3 216 217 197
3 215 195 218
3 218 195 196
3 198 218 196
3 217 219 197
3 219 218 198
3 197 219 198
3 220 199 213
3 221 200 199
3 220 221 199
3 222 201 200
3 221 222 200
3 203 204 223
3 203 223 202
3 202 223 205
3 204 208 224
3 204 224 223
3 205 223 225
3 205 225 207
3 207 225 226
3 207 226 206
3 226 216 206
3 208 228 224
3 224 228 227
3 209 229 208
3 229 228 208
3 210 230 209
3 209 230 229
3 213 212 231
3 212 211 231
3 231 211 214
3 232 220 213
3 232 213 231
3 233 231 214
3 233 214 215
3 234 233 215
3 234 215 218
3 226 235 216
3 235 217 216
3 235 236 217
3 217 236 219
3 237 234 218
3 237 218 219
3 236 238 219
3 238 237 219
3 240 220 232
3 239 240 232
3 241 221 220
3 240 241 220
3 242 222 221
3 241 242 221
3 224 227 243
3 224 243 223
3 223 243 225
3 225 243 244
3 225 244 226
3 226 244 235
3 227 245 243
3 228 246 227
3 227 246 245
3 229 247 228
3 228 247 246
3 230 248 229
3 229 248 247
3 239 232 249
3 232 231 249
3 249 231 233
3 250 249 233
3 250 233 234
3 237 250 234
3 244 251 235
3 235 251 236
3 251 252 236
3 236 252 238
3 252 253 238
3 253 250 237
3 253 237 238
3 254 239 249
3 255 240 239
3 254 255 239
3 256 241 240
3 255 256 240
3 257 242 241
3 256 257 241
3 245 258 243
3 243 258 244
3 244 258 251
3 245 259 258
3 246 260 245
3 245 260 259
3 247 261 246
3 246 261 260
3 248 262 247
3 247 262 261
3 254 249 263
3 263 249 250
3 253 263 250
3 258 264 251
3 251 264 252
3 264 265 252
3 265 263 253
3 252 265 253
3 266 254 263
3 267 255 254
3 266 267 254
3 268 256 255
3 267 268 255
3 269 257 256
3 268 269 256
3 259 270 258
3 270 264 258
3 260 271 259
3 259 271 270
3 261 272 260
3 260 272 271
3 262 273 261
3 273 272 261
3 270 274 264
3 275 266 263
3 275 263 265
3 274 276 264
3 276 265 264
3 276 277 265
3 277 275 265
3 278 267 266
3 275 278 266
3 279 268 267
3 278 279 267
3 280 269 268
3 279 280 268
3 271 281 270
3 270 281 274
3 272 282 271
3 271 282 281
3 273 283 272
3 272 283 282
3 281 284 274
3 274 284 276
3 285 278 275
3 277 285 275
3 284 286 276
3 286 285 277
3 276 286 277
3 287 279 278
3 285 287 278
3 288 280 279
3 287 288 279
3 282 289 281
3 281 289 284
3 283 290 282
3 282 290 289
3 289 291 284
3 284 291 286
3 291 292 286
3 292 287 285
3 286 292 285
3 293 288 287
3 292 293 287
3 290 294 289
3 289 294 291
3 294 295 291
3 295 293 292
3 291 295 292
CELL_TYPES 542
5
5
5
5
5
5
5
5
5
5
5
5
5
5
5
5
5
5
5
5
5
5
5
5
5
5
5
5
5
5
5
5
5
5
5
5
5
5
5
5
5
5
5
5
5
5
5
5
5
5
5
5
5
5
5
5
5
5
5
5
5
5
5
5
5
5
5
5
5
5
5
5
5
5
5
5
5
5
5
5
5
5
5
5
5
5
5
5
5
5
5
5
5
5
5
5
5
5
5
5
5
5
5
5
5
5
5
5
5
5
5
5
5
5
5
5
5
5
5
5
5
5
5
5
5
5
5
5
5
5
5
5
5
5
5
5
5
5
5
5
5
5
5
5
5
5
5
5
5
5
5
5
5
5
5
5
5
5
5
5
5
5
5
5
5
5
5
5
5
5
5
5
5
5
5
5
5
5
5
5
5
5
5
5
5
5
5
5
5
5
5
5
5
5
5
5
5
5
5
5
5
5
5
5
5
5
5
5
5
5
5
5
5
5
5
5
5
5
5
5
5
5
5
5
5
5
5
5
5
5
5
5
5
5
5
5
5
5
5
5
5
5
5
5
5
5
5
5
5
5
5
5
5
5
5
5
5
5
5
5
5
5
5
5
5
5
5
5
5
5
5
5
5
5
5
5
5
5
5
5
5
5
5
5
5
5
5
5
5
5
5
5
5
5
5
5
5
5
5
5
5
5
5
5
5
5
5
5
5
5
5
5
5
5
5
5
5
5
5
5
5
5
5
5
5
5
5
5
5
5
5
5
5
5
5
5
5
5
5
5
5
5
5
5
5
5
5
5
5
5
5
5
5
5
5
5
5
5
5
5
5
5
5
5
5
5
5
5
5
5
5
5
5
5
5
5
5
5
5
5
5
5
5
5
5
5
5
5
5
5
5
5
5
5
5
5
5
5
5
5
5
5
5
5
5
5
5
5
5
5
5
5
5
5
5
5
5
5
5
5
5
5
5
5
5
5
5
5
5
5
5
5
5
5
5
5
5
5
5
5
5
5
5
5
5
5
5
5
5
5
5
5
5
5
5
5
5
5
5
5
5
5
5
5
5
5
5
5
5
5
5
5
5
5
5
5
5
5
5
5
5
5
5
5
5
5
5
5
5
5
5
5
5
5
5
5
5
5
5
5
5
5
5
5
5
5
5
5
5
5
5
5
5
5
5
5
5
5
5
5
5
5
5
5
5
5
5
5
5
5
5
5
5
5
5
5
5
5
5
5
5
5
POINT_DATA 296
SCALARS concentrations float 4
LOOKUP_TABLE default
0 0.960254 0.157951 8.86093
0 0.960254 0.157797 9.10608
0 0.960255 0.157349 9.15075
0 0.960258 0.156813 8.77446
0 0.960263 0.0909351 0.0102332
0 0.960252 0.157375 8.94766
0 0.960249 0.157031 8.93796
0 0.960263 0.0909347 0.0105888
0 0.960262 0.0909347 0.0109325
0 0.960243 0.156997 8.96596
0 0.960237 0.156833 8.70376
0 0.960255 0.156054 8.82515
0 0.960253 0.15593 9.27287
0 0.960266 0.0909339 0.0117459
0 0.960266 0.0909326 0.0116349
0 0.960281 0.0909293 0.00988944
0 0.96028 0.0909291 0.00942706
0 0.96026 0.0909336 0.00984368
0 0.960257 0.0909334 0.00903403
0 0.960279 0.0909294 0.00926916
0 0.960278 0.0909291 0.0087872
0 0.960245 0.158288 9.17416
0 0.960248 0.158851 9.08801
0 0.960252 0.0909333 0.00524135
0 0.960252 0.0909341 0.00572984
0 0.960263 0.0909298 0.0110885
0 0.960256 0.155732 8.72558
0 0.960263 0.0909306 0.0113531
0 0.96026 0.156189 8.80917
0 0.960281 0.0909287 0.0102546
0 0.960281 0.0909263 0.00995764
0 0.960296 0.090922 0.00854006
0 0.960251 0.157001 8.95061
0 0.960298 0.0909195 0.00773702
0 0.960295 0.0909234 0.00817883
0 0.960276 0.0909289 0.00782867
0 0.960273 0.0909288 0.00618128
0 0.960297 0.0909206 0.00725706
0 0.960293 0.0909244 0.00727345
0 0.960258 0.0909351 0.00938888
0 0.960259 0.0909364 0.00985012
0 0.960272 0.0909286 0.00505979
0 0.960273 0.090929 0.00630063
0 0.960253 0.156302 8.90932
0 0.96028 0.0909268 0.0101752
0 0.960267 0.0909323 0.0109131
0 0.960282 0.0909285 0.0103651
0 0.960263 0.155732 8.80396
0 0.96027 0.0909323 0.0119651
0 0.96026 0.155244 8.67002
0 0.960298 0.0909191 0.00816934
0 0.960296 0.0909215 0.00877639
0 0.960309 0.0909055 0.00529908
0 0.960262 0.0909349 0.010564
0 0.960263 0.0909332 0.0107752
0 0.960309 0.0909064 0.00508342
0 0.960294 0.0909215 0.00585189
0 0.960291 0.0909241 0.0052591
0 0.960307 0.0909074 0.00462652
0 0.960276 0.0909294 0.00797737
0 0.960278 0.0909293 0.00880312
0 0.960294 0.0909221 0.0052273
0 0.960292 0.090925 0.00645689
0 0.960255 0.155234 8.79247
0 0.960299 0.0909182 0.00814328
0 0.960283 0.0909288 0.0104812
0 0.960298 0.0909223 0.00900911
0 0.96027 0.0909316 0.0110328
0 0.960285 0.0909278 0.010193
0 0.960261 0.155147 8.66742
0 0.960269 0.0909309 0.00957134
0 0.960262 0.155225 8.95633
0 0.960318 0.0909006 0.00408771
0 0.96031 0.0909052 0.0054823
0 0.960319 0.0909004 0.00432314
0 0.960279 0.0909292 0.00941684
0 0.960264 0.090932 0.010889
0 0.960279 0.090929 0.00965513
0 0.960318 0.0909011 0.00381207
0 0.960326 0.0908987 0.00344901
0 0.960307 0.0909078 0.00390127
0 0.960317 0.0909019 0.00356817
0 0.960296 0.0909201 0.0066751
0 0.960294 0.090922 0.00771363
0 0.960307 0.0909081 0.0042105
0 0.960254 0.155649 8.73877
0 0.960311 0.090905 0.00557125
0 0.960301 0.0909195 0.00846553
0 0.960285 0.0909284 0.00998821
0 0.9603 0.090923 0.00905804
0 0.96027 0.0909303 0.011084
0 0.960286 0.0909283 0.00993822
0 0.960259 0.155212 8.73714
0 0.96027 0.0909312 0.0112868
0 0.960328 0.0908969 0.0034033
0 0.96032 0.0909005 0.00458346
0 0.960328 0.0908979 0.00384104
0 0.960321 0.0909003 0.004662
0 0.960254 0.155454 8.49699
0 0.960262 0.0909317 0.00962363
0 0.960297 0.0909213 0.00786428
0 0.960279 0.0909263 0.00901954
0 0.960294 0.0909238 0.00848281
0 0.960333 0.0908924 0.00234794
0 0.960327 0.0908978 0.00298502
0 0.960317 0.0909023 0.00346444
0 0.960326 0.0908998 0.00310958
0 0.960309 0.0909084 0.00504848
0 0.960318 0.0909019 0.00360976
0 0.96025 0.15494 8.6552
0 0.960313 0.0909056 0.00571974
0 0.960303 0.0909206 0.00852062
0 0.960286 0.0909284 0.0100402
0 0.960301 0.0909246 0.0092164
0 0.960267 0.0909332 0.00850682
0 0.960285 0.0909287 0.00934787
0 0.960265 0.0909317 0.00723709
0 0.960339 0.0908898 0.00199397
0 0.960338 0.0908898 0.00165314
0 0.960335 0.0908915 0.00262146
0 0.96033 0.0908968 0.00385315
0 0.960322 0.0909003 0.00474154
0 0.96033 0.0908984 0.00431206
0 0.960341 0.0908876 0.00201646
0 0.960256 0.155341 9.00007
0 0.960262 0.0909311 0.00902964
0 0.96028 0.0909246 0.00840722
0 0.960309 0.0909107 0.00582865
0 0.960297 0.0909221 0.00805417
0 0.960334 0.0908928 0.00208097
0 0.960328 0.0908982 0.00293648
0 0.96032 0.090902 0.00397337
0 0.960327 0.0908979 0.00311033
0 0.960264 0.0909315 0.00991539
0 0.960254 0.155255 8.71595
0 0.960314 0.090906 0.00576107
0 0.960304 0.0909213 0.00838701
0 0.960285 0.0909287 0.00855277
0 0.960301 0.090924 0.00847522
0 0.96027 0.0909343 0.00985831
0 0.960286 0.0909289 0.0089494
0 0.960324 0.0909005 0.00485691
0 0.96034 0.090888 0.00123635
0 0.960343 0.0908842 0.000778233
0 0.960337 0.0908912 0.00294268
0 0.960332 0.090897 0.00420128
0 0.960332 0.090899 0.0047355
0 0.960342 0.0908868 0.00227888
0 0.960344 0.0908811 0.00123405
0 0.960275 0.0909351 0.011697
0 0.960263 0.155912 8.65428
0 0.96032 0.0909024 0.00430149
0 0.96028 0.0909254 0.00838115
0 0.960296 0.0909237 0.00814785
0 0.960311 0.090911 0.00590698
0 0.96028 0.0909275 0.00855184
0 0.960335 0.0908927 0.00219298
0 0.96033 0.0908973 0.00322851
0 0.96034 0.0908884 0.00146075
0 0.960327 0.0909025 0.00425705
0 0.960264 0.0909309 0.00849463
0 0.960255 0.155186 8.6934
0 0.960316 0.0909061 0.00570565
0 0.960305 0.0909209 0.00801146
0 0.960289 0.0909303 0.0102832
0 0.960303 0.0909246 0.00906257
0 0.960292 0.0909311 0.0111742
0 0.960325 0.0909011 0.00511088
0 0.960344 0.0908811 0.000482088
0 0.960338 0.0908909 0.00321137
0 0.960334 0.0908981 0.00469583
0 0.960343 0.0908855 0.00231528
0 0.960344 0.0908816 0.00144525
0 0.960278 0.0909353 0.0111653
0 0.960268 0.154933 8.52055
0 0.960319 0.0909038 0.00461592
0 0.960297 0.090921 0.00751656
0 0.960309 0.0909127 0.00619788
0 0.960281 0.0909282 0.00862563
0 0.960297 0.090921 0.00744549
0 0.960337 0.0908913 0.00221896
0 0.960334 0.090895 0.0029852
0 0.960341 0.0908878 0.00172583
0 0.96033 0.0908996 0.00382547
0 0.960322 0.0909055 0.00488296
0 0.960282 0.090928 0.00877589
0 0.960264 0.0909293 0.00870285
0 0.960254 0.1543 8.81678
0 0.960317 0.0909065 0.00604922
0 0.960308 0.0909213 0.00917765
0 0.960294 0.0909304 0.011957
0 0.960307 0.0909246 0.0104646
0 0.960326 0.0909018 0.00537203
0 0.960334 0.0908998 0.00508015
0 0.960342 0.090886 0.00162321
0 0.960339 0.0908914 0.00343375
0 0.960343 0.0908873 0.00263219
0 0.960342 0.0908883 0.00225695
0 0.960342 0.0908884 0.00262429
0 0.960295 0.0909291 0.0117365
0 0.960282 0.0909342 0.0144535
0 0.960272 0.155088 8.691
0 0.960311 0.0909087 0.00543456
0 0.9603 0.0909199 0.00733671
0 0.960298 0.0909244 0.00828212
0 0.96032 0.0909054 0.00490383
0 0.960337 0.0908914 0.00251709
0 0.96033 0.0908995 0.00389735
0 0.960284 0.0909279 0.00910049
0 0.960267 0.090931 0.00972981
0 0.960257 0.15472 8.794
0 0.960319 0.0909061 0.0064158
0 0.96031 0.0909207 0.00990259
0 0.960307 0.0909259 0.0104921
0 0.960326 0.0909015 0.00524174
0 0.960335 0.0908984 0.00466412
0 0.960338 0.0908926 0.00278432
0 0.960338 0.0908958 0.00341914
0 0.960339 0.0908928 0.00344286
0 0.960338 0.0908944 0.00335834
0 0.960292 0.0909298 0.0105553
0 0.960281 0.0909317 0.013266
0 0.960277 0.154298 8.72367
0 0.960311 0.0909087 0.00551134
0 0.960302 0.0909196 0.00761698
0 0.960322 0.0909025 0.00444858
0 0.960332 0.0908969 0.00353145
0 0.9603 0.0909221 0.0081225
0 0.960285 0.090929 0.00947573
0 0.960269 0.0909318 0.0100871
0 0.960259 0.155931 8.70245
0 0.960319 0.0909057 0.00605726
0 0.960308 0.0909219 0.00860747
0 0.960326 0.0909009 0.00478161
0 0.960333 0.0909001 0.00463882
0 0.960331 0.0908985 0.00379082
0 0.960331 0.0908997 0.00398121
0 0.960333 0.0908993 0.00419395
0 0.960331 0.0909009 0.00423748
0 0.960303 0.0909245 0.00792223
0 0.960288 0.09093 0.00893196
0 0.960274 0.0909311 0.00766742
0 0.960269 0.153228 8.30966
0 0.960313 0.0909062 0.00517751
0 0.960323 0.0909004 0.00407355
0 0.960302 0.0909198 0.00756473
0 0.960285 0.0909291 0.00932851
0 0.960269 0.0909313 0.0103346
0 0.960261 0.155974 8.78561
0 0.960317 0.0909058 0.00510905
0 0.960324 0.0909014 0.00444088
0 0.960323 0.0908997 0.00391355
0 0.960322 0.0909005 0.00401848
0 0.960323 0.090901 0.00416377
0 0.960303 0.0909202 0.00672929
0 0.960284 0.0909287 0.00788543
0 0.960269 0.0909323 0.00792571
0 0.960263 0.154317 8.41138
0 0.960314 0.0909066 0.00514344
0 0.960299 0.0909232 0.00800531
0 0.960284 0.0909274 0.00874424
0 0.960267 0.0909302 0.00932211
0 0.96026 0.154821 8.64523
0 0.960314 0.0909061 0.00469725
0 0.960313 0.0909059 0.00486352
0 0.960313 0.0909057 0.00465321
0 0.960298 0.090923 0.00692028
0 0.96028 0.090927 0.00731336
0 0.960262 0.0909294 0.0073311
0 0.960255 0.154894 8.7778
0 0.960302 0.0909204 0.00740407
0 0.960284 0.090927 0.00852488
0 0.960267 0.0909297 0.00872362
0 0.960257 0.154229 8.73412
0 0.960299 0.0909237 0.00778121
0 0.9603 0.0909201 0.00656041
0 0.960301 0.0909204 0.00698225
0 0.960297 0.0909235 0.00720831
0 0.960278 0.0909276 0.00751145
0 0.960256 0.0909275 0.00684632
0 0.960247 0.154351 8.66656
0 0.960283 0.090928 0.00867785
0 0.960267 0.0909299 0.00920156
0 0.960258 0.154731 8.61678
0 0.960282 0.0909281 0.00836586
0 0.960278 0.090928 0.00772164
0 0.96028 0.090928 0.00798563
0 0.960256 0.0909281 0.00794844
0 0.960243 0.152194 8.26231
0 0.960265 0.0909298 0.00921756
0 0.960257 0.154663 8.64566
0 0.960262 0.0909291 0.00835323
0 0.96026 0.0909294 0.00781227
0 0.960247 0.153459 8.57161
0 0.960255 0.154792 8.74452
0 0.96025 0.154209 8.59652
VECTORS fa_u float
0.00818183 0.00340204 0
0.00788405 0.00455657 0
0.0088449 0.00234607 0
0.0087002 0.00113915 0
9.9251e-06 2.4923e-06 0
0.0071056 0.00543793 0
0.00632032 0.00631988 0
9.66124e-06 4.33402e-06 0
9.80262e-06 4.84027e-06 0
0.00546057 0.0071113 0
0.00433352 0.00754825 0
0.00882509 3.26577e-05 0
0.00919212 -0.00122105 0
1.17346e-05 5.1568e-07 0
1.15984e-05 9.21511e-07 0
9.72566e-06 1.79235e-06 0
8.99735e-06 2.81374e-06 0
8.51056e-06 4.94656e-06 0
7.67553e-06 4.76444e-06 0
8.43366e-06 3.84586e-06 0
7.73498e-06 4.16952e-06 0
0.00350228 0.00847934 0
0.0023707 0.00877336 0
5.21902e-06 4.83271e-07 0
-2.78532e-06 5.0073e-06 0
1.10005e-05 -1.39393e-06 0
0.00842295 -0.00227809 0
1.10453e-05 -2.6257e-06 0
0.0081309 -0.00338968 0
1.02466e-05 4.06654e-07 0
9.94979e-06 -3.95185e-07 0
8.49428e-06 8.8308e-07 0
0.00115813 0.00887537 0
7.50656e-06 1.8743e-06 0
7.67545e-06 2.82504e-06 0
6.62512e-06 4.17084e-06 0
5.02082e-06 3.6055e-06 0
6.47382e-06 3.27942e-06 0
6.18802e-06 3.82251e-06 0
1.18472e-06 9.31384e-06 0
2.15719e-07 9.84776e-06 0
2.334e-06 4.48931e-06 0
7.49876e-07 6.25584e-06 0
-6.60052e-06 0.00890932 0
1.00025e-05 -1.86699e-06 0
1.02053e-05 -3.86625e-06 0
9.87655e-06 -3.14477e-06 0
0.00762996 -0.00439243 0
1.0033e-05 -6.51948e-06 0
0.00688815 -0.00526523 0
8.16602e-06 -2.32816e-07 0
8.721e-06 -9.84454e-07 0
5.29328e-06 2.47939e-07 0
-5.61512e-07 1.05491e-05 0
-1.56811e-06 1.06605e-05 0
4.86068e-06 1.48827e-06 0
4.581e-06 3.6413e-06 0
3.30147e-06 4.0937e-06 0
3.94164e-06 2.42243e-06 0
5.15657e-07 7.96069e-06 0
-9.9905e-08 8.80256e-06 0
1.86017e-06 4.88513e-06 0
1.00599e-06 6.37804e-06 0
-0.00116424 0.00871505 0
7.88065e-06 -2.05144e-06 0
9.31814e-06 -4.79883e-06 0
8.24185e-06 -3.63812e-06 0
9.75177e-06 -5.15995e-06 0
8.64555e-06 -5.39922e-06 0
0.00611108 -0.00614646 0
6.67312e-06 -6.86149e-06 0
0.00544757 -0.00710914 0
4.05853e-06 4.87511e-07 0
5.36938e-06 -1.10696e-06 0
4.28942e-06 -5.3892e-07 0
-1.2146e-06 9.33818e-06 0
-2.36862e-06 1.06283e-05 0
-1.82087e-06 9.48187e-06 0
3.51034e-06 1.48639e-06 0
3.34825e-06 8.27585e-07 0
2.45371e-06 3.03301e-06 0
2.71633e-06 2.31373e-06 0
3.02068e-07 6.66826e-06 0
-5.19327e-07 7.69613e-06 0
9.83463e-07 4.09404e-06 0
-0.00225333 0.00844325 0
4.96817e-06 -2.52113e-06 0
7.23025e-06 -4.40326e-06 0
7.71799e-06 -6.34011e-06 0
7.27046e-06 -5.40264e-06 0
6.45431e-06 -9.01096e-06 0
6.6175e-06 -7.41464e-06 0
0.0043991 -0.00754887 0
6.69264e-06 -9.08844e-06 0
3.40277e-06 -5.98288e-08 0
4.22796e-06 -1.76987e-06 0
3.69531e-06 -1.04798e-06 0
3.7338e-06 -2.7916e-06 0
0.00327084 -0.00784222 0
-1.78491e-06 9.45666e-06 0
-1.22829e-06 7.76777e-06 0
-2.4261e-06 8.68712e-06 0
-2.14616e-06 8.20683e-06 0
2.31347e-06 4.00826e-07 0
2.54069e-06 1.56692e-06 0
1.60784e-06 3.06874e-06 0
1.95585e-06 2.41746e-06 0
-1.42432e-07 5.04647e-06 0
5.79171e-07 3.56299e-06 0
-0.00330677 0.00799861 0
4.32582e-06 -3.74201e-06 0
6.05911e-06 -5.99067e-06 0
5.85147e-06 -8.15882e-06 0
5.66105e-06 -7.27287e-06 0
5.27628e-06 -6.67285e-06 0
4.93935e-06 -7.93634e-06 0
1.0535e-06 -7.16e-06 0
1.96299e-06 -3.5012e-07 0
1.51621e-06 6.58773e-07 0
2.44776e-06 -9.38351e-07 0
3.28372e-06 -2.01593e-06 0
2.95826e-06 -3.70552e-06 0
3.03647e-06 -3.06164e-06 0
1.54785e-06 -1.2924e-06 0
0.00230298 -0.00870044 0
-4.7478e-06 7.68068e-06 0
-3.13596e-06 7.80046e-06 0
-1.36241e-06 5.66719e-06 0
-2.80349e-06 7.5505e-06 0
1.36782e-06 1.56828e-06 0
9.00422e-07 2.79502e-06 0
-4.76575e-07 3.94468e-06 0
8.55414e-08 3.10916e-06 0
-5.14865e-06 8.47387e-06 0
-0.00436932 0.00754167 0
3.2645e-06 -4.74689e-06 0
4.33957e-06 -7.17705e-06 0
2.91574e-06 -8.04042e-06 0
3.41342e-06 -7.75744e-06 0
-9.07076e-07 -9.81649e-06 0
9.73977e-07 -8.89625e-06 0
1.97836e-06 -4.43573e-06 0
5.12352e-07 1.1252e-06 0
7.57584e-07 -1.78082e-07 0
1.93879e-06 -2.21369e-06 0
2.14058e-06 -3.61507e-06 0
1.35437e-06 -4.53769e-06 0
9.23343e-07 -2.08344e-06 0
1.94907e-07 -1.21856e-06 0
-9.07338e-07 -1.16618e-05 0
0.00112885 -0.00858034 0
-1.48517e-06 4.03697e-06 0
-4.15556e-06 7.27839e-06 0
-3.53339e-06 7.34184e-06 0
-2.29817e-06 5.44158e-06 0
-5.0188e-06 6.92428e-06 0
1.32414e-07 2.18897e-06 0
-8.05716e-07 3.12635e-06 0
-3.94895e-07 1.40636e-06 0
-1.87721e-06 3.8208e-06 0
-5.18339e-06 6.72987e-06 0
-0.00528392 0.0069033 0
1.83673e-06 -5.40193e-06 0
1.80901e-06 -7.80455e-06 0
-3.34359e-07 -1.02777e-05 0
6.59694e-07 -9.03853e-06 0
-9.72726e-07 -1.11318e-05 0
8.63081e-07 -5.03748e-06 0
-4.81145e-07 3.01539e-08 0
8.22695e-07 -3.1042e-06 0
4.26141e-07 -4.67646e-06 0
-2.42648e-08 -2.31515e-06 0
-8.60604e-07 -1.16108e-06 0
-1.05265e-06 -1.11155e-05 0
3.07324e-05 -0.0085205 0
-2.63251e-06 3.79165e-06 0
-4.07767e-06 6.31436e-06 0
-3.4603e-06 5.14199e-06 0
-6.45266e-06 5.72404e-06 0
-4.99704e-06 5.51951e-06 0
-9.97103e-07 1.98232e-06 0
-1.67312e-06 2.47226e-06 0
-1.38796e-06 1.02569e-06 0
-2.56214e-06 2.84072e-06 0
-3.45374e-06 3.45181e-06 0
-7.17994e-06 5.04627e-06 0
-7.26946e-06 4.78484e-06 0
-0.00623546 0.00623335 0
4.37276e-07 -6.0334e-06 0
-1.6442e-07 -9.17618e-06 0
-2.09141e-06 -1.17726e-05 0
-1.16461e-06 -1.03996e-05 0
-9.79152e-08 -5.37114e-06 0
-5.64473e-07 -5.0487e-06 0
-1.61702e-06 1.41688e-07 0
-4.38143e-07 -3.40568e-06 0
-8.99182e-07 -2.47384e-06 0
-2.06479e-06 -9.11311e-07 0
-1.71012e-06 -1.99057e-06 0
-1.93499e-06 -1.15759e-05 0
-5.23437e-06 -1.34724e-05 0
-0.00115155 -0.00861437 0
-3.82362e-06 3.86192e-06 0
-5.7485e-06 4.55872e-06 0
-6.97398e-06 4.46735e-06 0
-3.95815e-06 2.89494e-06 0
-2.17975e-06 1.25875e-06 0
-3.31812e-06 2.04437e-06 0
-7.99593e-06 4.34557e-06 0
-8.24787e-06 5.16156e-06 0
-0.00698281 0.00534555 0
-6.24542e-07 -6.38533e-06 0
-1.53606e-06 -9.78273e-06 0
-2.18442e-06 -1.02622e-05 0
-9.97144e-07 -5.14602e-06 0
-1.37524e-06 -4.45676e-06 0
-2.76508e-06 3.26729e-07 0
-3.32453e-06 -7.98764e-07 0
-1.68092e-06 -3.00462e-06 0
-2.7109e-06 -1.98228e-06 0
-1.68788e-06 -1.04194e-05 0
1.33664e-06 -1.31985e-05 0
-0.0022352 -0.00843246 0
-4.67768e-06 2.91448e-06 0
-6.85148e-06 3.32801e-06 0
-4.09938e-06 1.72769e-06 0
-3.41809e-06 8.87595e-07 0
-7.69691e-06 2.59472e-06 0
-8.70883e-06 3.7344e-06 0
-9.20284e-06 4.12999e-06 0
-0.00753669 0.00435096 0
-1.337e-06 -5.90786e-06 0
-2.29004e-06 -8.29724e-06 0
-1.67651e-06 -4.47807e-06 0
-2.21662e-06 -4.07495e-06 0
-3.79054e-06 -4.62685e-08 0
-3.80493e-06 -1.17155e-06 0
-2.85297e-06 -3.07406e-06 0
-3.6391e-06 -2.17099e-06 0
-3.2209e-06 -7.23792e-06 0
-2.40362e-06 -8.60248e-06 0
-1.30871e-06 -7.5549e-06 0
-0.00315396 -0.00768785 0
-4.92178e-06 1.60707e-06 0
-4.01941e-06 6.61906e-07 0
-7.44368e-06 1.34787e-06 0
-8.98706e-06 2.50076e-06 0
-9.66539e-06 3.65837e-06 0
-0.00811745 0.00336065 0
-2.19914e-06 -4.61153e-06 0
-2.53782e-06 -3.6443e-06 0
-3.88542e-06 -4.68325e-07 0
-3.69677e-06 -1.57546e-06 0
-3.21958e-06 -2.64033e-06 0
-3.76398e-06 -5.57815e-06 0
-3.65944e-06 -6.98487e-06 0
-2.8126e-06 -7.40986e-06 0
-0.00422393 -0.00727391 0
-5.13297e-06 3.28032e-07 0
-7.98349e-06 5.90666e-07 0
-8.63044e-06 1.40613e-06 0