# vtk DataFile Version 2.0
CellBP Time: 3.68
ASCII
DATASET UNSTRUCTURED_GRID
POINTS 296 double
-9.0102 -3.70284 0
-8.44266 -4.85327 0
-9.42257 -2.48816 0
-9.67372 -1.23013 0
-8.35764 -2.81872 0
-7.7304 -5.92016 0
-6.88478 -6.88479 0
-7.9173 -3.87475 0
-7.34274 -4.8679 0
-5.92032 -7.73062 0
-4.8537 -8.44325 0
-9.75804 0.0500687 0
-9.67465 1.33025 0
-8.65774 -1.68395 0
-8.78639 -0.529623 0
-7.58977 -2.00415 0
-7.22582 -2.9065 0
-6.63774 -5.77897 0
-5.8225 -6.59702 0
-6.79036 -3.88895 0
-6.22066 -4.67597 0
-3.7026 -9.00965 0
-2.48833 -9.42338 0
-4.90655 -7.30894 0
-3.91307 -7.88638 0
-8.79285 0.643409 0
-9.4243 2.58856 0
-8.62338 1.7741 0
-9.0114 3.80331 0
-7.74437 -0.928992 0
-7.79461 0.0802626 0
-6.95264 -1.31589 0
-1.23017 -9.67342 0
-6.44157 -2.15314 0
-6.31946 -3.05616 0
-5.53662 -5.47465 0
-4.79598 -6.11557 0
-5.65912 -3.75706 0
-5.26947 -4.56165 0
-2.86621 -8.3641 0
-1.77859 -8.6404 0
-3.9282 -6.72367 0
-3.05666 -7.15274 0
0.0500386 -9.75778 0
-7.70561 1.14353 0
-8.33872 2.91547 0
-7.55201 2.112 0
-8.44431 4.95424 0
-7.88022 3.97831 0
-7.73183 6.02124 0
-6.77881 -0.396865 0
-6.95665 0.552562 0
-5.77153 -1.00342 0
-0.590847 -8.8099 0
0.565697 -8.77109 0
-5.30324 -2.48032 0
-4.49204 -5.09582 0
-3.90256 -5.77543 0
-4.43901 -3.80483 0
-2.06245 -7.56212 0
-1.1355 -7.78603 0
-2.9946 -6.10219 0
-2.30906 -6.61994 0
1.33029 -9.67485 0
-6.6896 1.42208 0
-7.17234 3.11818 0
-6.6594 2.37306 0
-7.29493 4.9888 0
-6.71825 4.00316 0
-6.88598 6.98593 0
-6.5727 5.89434 0
-5.92104 7.83161 0
-4.45318 -1.18108 0
-5.81475 0.513771 0
-4.65624 -0.0103738 0
0.00851365 -7.84832 0
1.73863 -8.64409 0
0.94899 -7.76367 0
-4.03858 -2.40643 0
-3.48559 -1.39121 0
-3.29458 -4.80546 0
-3.26592 -3.26784 0
-1.37861 -6.67566 0
-0.508759 -7.02516 0
-1.9756 -5.53719 0
2.58863 -9.42436 0
-5.5075 2.03699 0
-6.09491 3.0723 0
-6.10531 4.86981 0
-5.76193 3.99162 0
-5.76155 6.71744 0
-5.45235 5.61961 0
-4.85443 8.54478 0
-4.8387 7.40494 0
-3.50154 -0.424299 0
-4.4494 1.24907 0
-3.71152 0.592095 0
-4.06227 2.31988 0
-3.70368 9.11221 0
2.86274 -8.33325 0
0.419705 -6.7957 0
2.02211 -7.5262 0
1.30614 -6.90587 0
-2.44469 -0.873814 0
-2.83842 -2.13116 0
-2.29445 -4.09747 0
-2.32568 -2.97364 0
-0.44239 -5.86139 0
-1.22275 -4.49926 0
3.80376 -9.01233 0
-4.78999 3.39194 0
-5.08817 4.59437 0
-4.64742 6.28178 0
-4.53909 5.36 0
-3.84396 7.99386 0
-3.82696 6.84612 0
-2.78348 8.42338 0
-1.64904 -0.137887 0
-1.45026 -0.890579 0
-2.48914 0.507279 0
-3.25368 1.44419 0
-3.23913 3.31668 0
-2.91103 2.37183 0
-1.3551 0.62712 0
-2.48862 9.52412 0
3.93295 -7.88748 0
2.96473 -7.15819 0
0.95414 -5.82229 0
2.07445 -6.41587 0
-1.68299 -1.99208 0
-1.43446 -3.27784 0
0.0902313 -4.74716 0
-0.566185 -3.69451 0
4.93249 -7.3193 0
4.95443 -8.44473 0
-3.77715 4.55186 0
-3.73498 5.75249 0
-2.88816 7.29036 0
-3.00988 6.35413 0
-1.66268 8.73429 0
-1.94024 7.6199 0
-2.33846 4.05184 0
-0.730729 -1.32725 0
-0.83689 -0.257615 0
-1.93623 1.68081 0
-2.12581 2.87592 0
-1.3066 3.54479 0
-0.869455 1.35084 0
-0.282359 0.45605 0
-0.533559 8.87237 0
-1.23023 9.77458 0
1.11283 -4.5748 0
3.91044 -6.71781 0
2.98812 -6.09517 0
2.11799 -5.42527 0
4.78483 -6.20586 0
-0.558861 -2.47685 0
0.49513 -3.46393 0
0.0535569 -1.61049 0
1.48195 -3.68227 0
5.86769 -6.61525 0
6.02137 -7.73186 0
-2.47584 5.34882 0
-2.1306 6.53494 0
-0.904142 7.80394 0
-1.27244 6.93259 0
0.0862155 7.88105 0
-1.1445 4.49493 0
0.150322 -0.61765 0
-0.797431 2.48856 0
-0.331645 3.60085 0
0.0631189 1.51274 0
0.741449 0.473425 0
0.646845 8.87506 0
0.0500803 9.85867 0
2.38114 -4.28549 0
3.85951 -5.64091 0
3.00168 -5.21315 0
5.57431 -5.49237 0
4.69147 -5.28355 0
0.629689 -2.2934 0
1.25621 -2.95132 0
0.757496 -1.39146 0
2.16443 -3.13596 0
2.99394 -3.47678 0
6.15584 -4.79231 0
6.65632 -5.76995 0
6.9869 -6.88687 0
-1.01971 5.82082 0
-0.372646 6.88423 0
1.12275 7.77038 0
0.558031 7.08051 0
-0.000759818 4.72547 0
0.607037 3.828 0
1.33894 -0.641906 0
0.539126 2.65113 0
0.966114 1.57496 0
1.91025 0.213868 0
1.61481 1.06505 0
2.12965 7.58449 0
1.79943 8.71346 0
1.33037 9.77505 0
3.82316 -4.352 0
5.11714 -4.44951 0
5.84643 -3.93559 0
3.78429 -3.20131 0
1.81235 -1.8827 0
3.01934 -2.57406 0
6.78427 -3.94838 0
7.38245 -4.89745 0
7.83193 -5.92145 0
0.483404 5.88215 0
1.42835 6.74274 0
2.37465 6.66996 0
1.21008 4.55655 0
1.48828 3.39784 0
2.43591 -0.692051 0
2.8282 0.142606 0
1.78899 2.16295 0
2.61203 1.1502 0
3.07247 7.17117 0
2.90466 8.37809 0
2.58905 9.52536 0
4.91186 -3.32826 0
6.12156 -3.10911 0
4.17327 -2.27548 0
3.24468 -1.50303 0
6.7324 -2.31339 0
7.23322 -3.04301 0
7.96622 -3.91288 0
8.54423 -4.85418 0
2.02388 5.60055 0
3.087 6.1546 0
2.36416 4.12734 0
2.42029 3.06114 0
3.52598 -0.460904 0
3.61602 0.613336 0
2.96209 2.28827 0
3.54593 1.52541 0
4.01296 5.89928 0
3.98532 6.79462 0
3.97417 7.94043 0
3.80457 9.11397 0
5.5697 -1.91644 0
4.50978 -1.12974 0
6.71531 -1.33638 0
7.59419 -2.03685 0
8.39904 -2.86198 0
9.11162 -3.70338 0
3.41973 4.87788 0
3.33945 3.38584 0
4.69192 0.130089 0
4.51982 1.31015 0
4.06591 2.44415 0
4.57173 5.15379 0
4.84502 6.19249 0
4.98179 7.38246 0
4.95567 8.54701 0
5.8847 -0.434983 0
7.01274 -0.488365 0
7.76169 -1.08557 0
8.68722 -1.7464 0
9.52504 -2.48871 0
4.55349 3.82846 0
5.81915 1.09884 0
5.37257 2.53555 0
5.3818 4.62207 0
5.61401 5.52536 0
5.89908 6.67405 0
6.02128 7.83206 0
6.84826 0.463682 0
7.85595 -0.025648 0
8.86326 -0.584516 0
9.77558 -1.23036 0
6.9629 1.34991 0
5.72306 3.77975 0
6.54375 2.19825 0
6.38253 3.0891 0
6.2948 4.68873 0
6.6955 5.83995 0
6.98647 6.98628 0
7.78723 0.967962 0
8.86261 0.572952 0
9.85938 0.0499956 0
7.61915 2.00505 0
6.83189 3.9058 0
7.27243 2.94795 0
7.38114 4.88763 0
7.83387 6.02273 0
8.72622 1.72755 0
9.77544 1.33039 0
8.42415 2.83884 0
7.98467 3.91779 0
8.54604 4.95526 0
9.52488 2.58884 0
9.11291 3.80404 0
CELLS 542 2168
3 2 0 4
3 0 1 7
3 4 0 7
3 1 5 8
3 7 1 8
3 3 2 13
3 13 2 4
3 11 3 14
3 14 3 13
3 13 4 15
3 4 7 16
3 15 4 16
3 5 6 17
3 8 5 17
3 6 9 18
3 17 6 18
3 7 8 19
3 16 7 19
3 8 17 20
3 19 8 20
3 9 10 23
3 18 9 23
3 10 21 24
3 23 10 24
3 12 11 25
3 25 11 14
3 26 12 27
3 27 12 25
3 14 13 29
3 29 13 15
3 25 14 30
3 30 14 29
3 29 15 31
3 15 16 33
3 31 15 33
3 16 19 34
3 33 16 34
3 17 18 35
3 20 17 35
3 18 23 36
3 35 18 36
3 19 20 37
3 34 19 37
3 20 35 38
3 37 20 38
3 21 22 39
3 24 21 39
3 22 32 40
3 39 22 40
3 23 24 41
3 36 23 41
3 24 39 42
3 41 24 42
3 27 25 44
3 44 25 30
3 28 26 45
3 45 26 27
3 45 27 46
3 46 27 44
3 47 28 48
3 48 28 45
3 30 29 50
3 50 29 31
3 44 30 51
3 51 30 50
3 50 31 52
3 31 33 52
3 32 43 53
3 40 32 53
3 53 43 54
3 33 34 55
3 34 37 55
3 33 55 52
3 35 36 56
3 38 35 56
3 36 41 57
3 56 36 57
3 37 38 58
3 38 56 58
3 37 58 55
3 39 40 59
3 42 39 59
3 40 53 60
3 59 40 60
3 41 42 61
3 57 41 61
3 42 59 62
3 61 42 62
3 43 63 54
3 46 44 64
3 64 44 51
3 48 45 65
3 65 45 46
3 65 46 66
3 66 46 64
3 49 47 67
3 67 47 48
3 67 48 68
3 68 48 65
3 69 49 70
3 70 49 67
3 52 55 72
3 64 51 73
3 51 50 73
3 50 52 73
3 73 52 74
3 74 52 72
3 53 54 75
3 60 53 75
3 54 63 76
3 54 76 77
3 75 54 77
3 55 58 78
3 72 55 78
3 72 78 79
3 56 57 80
3 57 61 80
3 56 80 58
3 58 80 81
3 78 58 81
3 59 60 82
3 62 59 82
3 60 75 83
3 82 60 83
3 61 62 84
3 62 82 84
3 61 84 80
3 63 85 76
3 66 64 86
3 64 73 86
3 68 65 87
3 87 65 66
3 87 66 86
3 70 67 88
3 88 67 68
3 88 68 89
3 89 68 87
3 71 69 90
3 90 69 70
3 90 70 91
3 91 70 88
3 92 71 93
3 93 71 90
3 74 72 94
3 94 72 79
3 86 73 95
3 95 73 74
3 95 74 96
3 96 74 94
3 97 86 95
3 76 85 99
3 75 77 100
3 83 75 100
3 76 99 101
3 77 76 101
3 77 101 102
3 100 77 102
3 94 79 103
3 78 81 104
3 79 78 104
3 79 104 103
3 80 84 105
3 81 80 105
3 81 105 106
3 104 81 106
3 82 83 107
3 83 100 107
3 82 107 84
3 84 107 108
3 105 84 108
3 85 109 99
3 89 87 110
3 87 86 110
3 110 86 97
3 91 88 111
3 111 88 89
3 111 89 110
3 93 90 112
3 112 90 91
3 112 91 113
3 113 91 111
3 98 92 114
3 114 92 93
3 114 93 115
3 115 93 112
3 116 98 114
3 117 103 118
3 96 94 119
3 94 103 119
3 119 103 117
3 97 95 120
3 120 95 96
3 120 96 119
3 121 110 97
3 121 97 122
3 122 97 120
3 123 119 117
3 124 98 116
3 99 109 125
3 99 125 126
3 101 99 126
3 100 102 127
3 100 127 107
3 101 126 128
3 102 101 128
3 102 128 127
3 104 106 129
3 104 129 103
3 103 129 118
3 105 108 130
3 106 105 130
3 106 130 129
3 107 127 131
3 108 107 131
3 108 131 132
3 108 132 130
3 109 134 125
3 125 134 133
3 113 111 135
3 111 110 135
3 135 110 121
3 115 112 136
3 136 112 113
3 136 113 135
3 116 114 137
3 137 114 115
3 137 115 138
3 138 115 136
3 139 124 116
3 139 116 140
3 140 116 137
3 141 135 121
3 118 129 142
3 118 142 143
3 117 118 143
3 123 117 143
3 122 120 144
3 120 119 144
3 144 119 123
3 141 121 145
3 145 121 122
3 145 122 144
3 146 141 145
3 147 144 123
3 147 123 148
3 143 148 123
3 150 124 139
3 149 150 139
3 131 127 151
3 125 133 152
3 126 125 152
3 126 152 153
3 128 126 153
3 128 153 154
3 128 154 127
3 127 154 151
3 152 133 155
3 130 132 156
3 130 156 129
3 129 156 142
3 131 151 157
3 132 131 157
3 132 157 156
3 156 158 142
3 157 151 159
3 133 160 155
3 134 161 133
3 133 161 160
3 138 136 162
3 136 135 162
3 162 135 141
3 140 137 163
3 163 137 138
3 163 138 162
3 149 139 164
3 164 139 140
3 164 140 165
3 165 140 163
3 166 149 164
3 167 162 141
3 167 141 146
3 142 158 168
3 143 142 168
3 143 168 148
3 146 145 169
3 145 144 169
3 169 144 147
3 170 167 146
3 170 146 169
3 171 169 147
3 171 147 148
3 171 148 172
3 168 172 148
3 173 149 166
3 174 150 149
3 173 174 149
3 154 175 151
3 151 175 159
3 152 155 176
3 153 152 176
3 153 176 177
3 153 177 154
3 154 177 175
3 155 160 178
3 155 178 179
3 176 155 179
3 156 157 180
3 156 180 158
3 157 159 181
3 157 181 180
3 158 180 182
3 158 182 168
3 159 175 183
3 159 183 181
3 175 184 183
3 160 186 178
3 178 186 185
3 161 187 160
3 160 187 186
3 165 163 188
3 163 162 188
3 188 162 167
3 166 164 189
3 189 164 165
3 189 165 188
3 190 173 166
3 190 166 191
3 191 166 189
3 192 188 167
3 192 167 170
3 193 192 170
3 182 194 168
3 194 172 168
3 193 170 195
3 170 169 195
3 195 169 171
3 196 195 171
3 196 171 172
3 194 197 172
3 197 198 172
3 198 196 172
3 200 173 190
3 199 200 190
3 201 174 173
3 200 201 173
3 176 179 202
3 177 176 202
3 177 202 175
3 175 202 184
3 178 185 203
3 178 203 179
3 179 203 202
3 203 185 204
3 202 205 184
3 183 206 181
3 180 181 206
3 180 206 182
3 182 206 194
3 183 184 207
3 205 207 184
3 183 207 206
3 185 208 204
3 186 209 185
3 185 209 208
3 187 210 186
3 186 210 209
3 191 189 211
3 189 188 211
3 211 188 192
3 199 190 212
3 212 190 191
3 212 191 211
3 213 199 212
3 214 211 192
3 214 192 193
3 215 214 193
3 215 193 195
3 206 216 194
3 216 197 194
3 216 217 197
3 215 195 218
3 218 195 196
3 198 218 196
3 217 219 197
3 219 218 198
3 197 219 198
3 220 199 213
3 221 200 199
3 220 221 199
3 222 201 200
3 221 222 200
3 203 204 223
3 203 223 202
3 202 223 205
3 204 208 224
3 204 224 223
3 205 223 225
3 205 225 207
3 207 225 226
3 207 226 206
3 226 216 206
3 208 228 224
3 224 228 227
3 209 229 208
3 229 228 208
3 210 230 209
3 209 230 229
3 213 212 231
3 212 211 231
3 231 211 214
3 232 220 213
3 232 213 231
3 233 231 214
3 233 214 215
3 234 233 215
3 234 215 218
3 226 235 216
3 235 217 216
3 235 236 217
3 217 236 219
3 237 234 218
3 237 218 219
3 236 238 219
3 238 237 219
3 240 220 232
3 239 240 232
3 241 221 220
3 240 241 220
3 242 222 221
3 241 242 221
3 224 227 243
3 224 243 223
3 223 243 225
3 225 243 244
3 225 244 226
3 226 244 235
3 227 245 243
3 228 246 227
3 227 246 245
3 229 247 228
3 228 247 246
3 230 248 229
3 229 248 247
3 239 232 249
3 232 231 249
3 249 231 233
3 250 249 233
3 250 233 234
3 237 250 234
3 244 251 235
3 235 251 236
3 251 252 236
3 236 252 238
3 252 253 238
3 253 250 237
3 253 237 238
3 254 239 249
3 255 240 239
3 254 255 239
3 256 241 240
3 255 256 240
3 257 242 241
3 256 257 241
3 245 258 243
3 243 258 244
3 244 258 251
3 245 259 258
3 246 260 245
3 245 260 259
3 247 261 246
3 246 261 260
3 248 262 247
3 247 262 261
3 254 249 263
3 263 249 250
3 253 263 250
3 258 264 251
3 251 264 252
3 264 265 252
3 265 263 253
3 252 265 253
3 266 254 263
3 267 255 254
3 266 267 254
3 268 256 255
3 267 268 255
3 269 257 256
3 268 269 256
3 259 270 258
3 270 264 258
3 260 271 259
3 259 271 270
3 261 272 260
3 260 272 271
3 262 273 261
3 273 272 261
3 270 274 264
3 275 266 263
3 275 263 265
3 274 276 264
3 276 265 264
3 276 277 265
3 277 275 265
3 278 267 266
3 275 278 266
3 279 268 267
3 278 279 267
3 280 269 268
3 279 280 268
3 271 281 270
3 270 281 274
3 272 282 271
3 271 282 281
3 273 283 272
3 272 283 282
3 281 284 274
3 274 284 276
3 285 278 275
3 277 285 275
3 284 286 276
3 286 285 277
3 276 286 277
3 287 279 278
3 285 287 278
3 288 280 279
3 287 288 279
3 282 289 281
3 281 289 284
3 283 290 282
3 282 290 289
3 289 291 284
3 284 291 286
3 291 292 286
3 292 287 285
3 286 292 285
3 293 288 287
3 292 293 287
3 290 294 289
3 289 294 291
3 294 295 291
3 295 293 292
3 291 295 292
CELL_TYPES 542
5
5
5
5
5
5
5
5
5
5
5
5
5
5
5
5
5
5
5
5
5
5
5
5
5
5
5
5
5
5
5
5
5
5
5
5
5
5
5
5
5
5
5
5
5
5
5
5
5
5
5
5
5
5
5
5
5
5
5
5
5
5
5
5
5
5
5
5
5
5
5
5
5
5
5
5
5
5
5
5
5
5
5
5
5
5
5
5
5
5
5
5
5
5
5
5
5
5
5
5
5
5
5
5
5
5
5
5
5
5
5
5
5
5
5
5
5
5
5
5
5
5
5
5
5
5
5
5
5
5
5
5
5
5
5
5
5
5
5
5
5
5
5
5
5
5
5
5
5
5
5
5
5
5
5
5
5
5
5
5
5
5
5
5
5
5
5
5
5
5
5
5
5
5
5
5
5
5
5
5
5
5
5
5
5
5
5
5
5
5
5
5
5
5
5
5
5
5
5
5
5
5
5
5
5
5
5
5
5
5
5
5
5
5
5
5
5
5
5
5
5
5
5
5
5
5
5
5
5
5
5
5
5
5
5
5
5
5
5
5
5
5
5
5
5
5
5
5
5
5
5
5
5
5
5
5
5
5
5
5
5
5
5
5
5
5
5
5
5
5
5
5
5
5
5
5
5
5
5
5
5
5
5
5
5
5
5
5
5
5
5
5
5
5
5
5
5
5
5
5
5
5
5
5
5
5
5
5
5
5
5
5
5
5
5
5
5
5
5
5
5
5
5
5
5
5
5
5
5
5
5
5
5
5
5
5
5
5
5
5
5
5
5
5
5
5
5
5
5
5
5
5
5
5
5
5
5
5
5
5
5
5
5
5
5
5
5
5
5
5
5
5
5
5
5
5
5
5
5
5
5
5
5
5
5
5
5
5
5
5
5
5
5
5
5
5
5
5
5
5
5
5
5
5
5
5
5
5
5
5
5
5
5
5
5
5
5
5
5
5
5
5
5
5
5
5
5
5
5
5
5
5
5
5
5
5
5
5
5
5
5
5
5
5
5
5
5
5
5
5
5
5
5
5
5
5
5
5
5
5
5
5
5
5
5
5
5
5
5
5
5
5
5
5
5
5
5
5
5
5
5
5
5
5
5
5
5
5
5
5
5
5
5
5
5
5
5
5
5
5
5
5
5
5
5
5
5
5
5
5
5
5
5
5
5
5
5
5
5
5
5
5
5
5
5
5
5
5
5
5
5
5
5
5
5
5
5
5
5
5
5
5
POINT_DATA 296
SCALARS concentrations float 4
LOOKUP_TABLE default
0 0.962039 0.162705 9.37294
0 0.962041 0.162535 9.69404
0 0.962038 0.162023 9.78202
0 0.96204 0.161523 9.33175
0 0.962048 0.0909353 0.00988287
0 0.962041 0.162093 9.47757
0 0.96204 0.161722 9.45543
0 0.96205 0.0909354 0.0109157
0 0.96205 0.0909351 0.0114091
0 0.96204 0.161679 9.47973
0 0.962041 0.161891 9.3626
0 0.962032 0.160686 9.43298
0 0.962026 0.16051 9.33033
0 0.962049 0.0909345 0.0110811
0 0.962046 0.0909348 0.0104883
0 0.962065 0.0909305 0.00936907
0 0.962066 0.0909301 0.00943218
0 0.96205 0.0909342 0.0104718
0 0.96205 0.090934 0.0103819
0 0.962067 0.0909303 0.00982641
0 0.962067 0.09093 0.00980865
0 0.962042 0.163046 9.73814
0 0.962038 0.163641 9.57457
0 0.96205 0.0909342 0.0102084
0 0.962051 0.0909348 0.011232
0 0.96204 0.0909347 0.00523604
0 0.962033 0.160355 9.30419
0 0.96204 0.0909363 0.0067242
0 0.962042 0.160846 9.37325
0 0.962064 0.0909308 0.00890167
0 0.962062 0.0909296 0.00720082
0 0.962081 0.0909236 0.00768232
0 0.962036 0.161682 9.47334
0 0.962084 0.0909205 0.00751024
0 0.962082 0.0909242 0.00843817
0 0.962067 0.0909299 0.0096715
0 0.962067 0.0909301 0.0096614
0 0.962085 0.0909213 0.00804777
0 0.962082 0.0909253 0.00881377
0 0.96205 0.0909359 0.0116355
0 0.962046 0.0909373 0.0103275
0 0.962067 0.0909301 0.00982836
0 0.962066 0.0909303 0.0099645
0 0.962034 0.160956 9.44908
0 0.962061 0.0909309 0.00652345
0 0.962048 0.0909348 0.0104018
0 0.962063 0.0909324 0.00822855
0 0.962048 0.160386 9.35941
0 0.962054 0.0909343 0.0134682
0 0.962046 0.159843 9.21451
0 0.962083 0.0909214 0.0066295
0 0.962079 0.0909247 0.00643666
0 0.962095 0.0909067 0.00482528
0 0.962045 0.0909356 0.0103741
0 0.962042 0.0909338 0.010232
0 0.962096 0.0909071 0.0052581
0 0.962085 0.0909223 0.00826633
0 0.962082 0.0909252 0.00882529
0 0.962096 0.090908 0.00559474
0 0.962065 0.0909304 0.00971479
0 0.962064 0.0909304 0.00932928
0 0.962084 0.0909231 0.00846684
0 0.962081 0.090926 0.00892262
0 0.962032 0.15983 9.3114
0 0.962083 0.0909213 0.00637202
0 0.962067 0.0909314 0.0104029
0 0.962082 0.0909251 0.00814479
0 0.962056 0.0909325 0.0123869
0 0.96207 0.0909296 0.0109328
0 0.962047 0.159759 9.21545
0 0.962054 0.0909316 0.0106876
0 0.962049 0.159847 9.58694
0 0.962105 0.0909014 0.00409858
0 0.962095 0.090907 0.00459569
0 0.962105 0.0909015 0.00403405
0 0.962062 0.0909301 0.00915895
0 0.96204 0.0909323 0.0100049
0 0.962059 0.0909297 0.00899358
0 0.962105 0.0909016 0.00427424
0 0.962113 0.0908993 0.00374284
0 0.962096 0.0909084 0.00571239
0 0.962105 0.0909024 0.00447626
0 0.962083 0.0909209 0.00775302
0 0.962079 0.0909228 0.00784768
0 0.962095 0.0909086 0.00566677
0 0.962026 0.160259 9.20439
0 0.962096 0.0909066 0.00524065
0 0.962086 0.0909215 0.00861785
0 0.96207 0.0909298 0.0111072
0 0.962085 0.0909245 0.00980336
0 0.962056 0.0909312 0.0130672
0 0.962071 0.0909296 0.0112371
0 0.962043 0.15983 9.25382
0 0.962055 0.0909328 0.0129927
0 0.962115 0.0908977 0.00341831
0 0.962106 0.0909018 0.00431364
0 0.962114 0.0908989 0.00369683
0 0.962107 0.0909013 0.00464964
0 0.962033 0.15997 8.92539
0 0.962034 0.0909307 0.00882507
0 0.96208 0.0909219 0.00747628
0 0.962056 0.0909268 0.0080609
0 0.962075 0.0909244 0.00757169
0 0.962121 0.0908929 0.00262741
0 0.962115 0.0908983 0.00358129
0 0.962105 0.0909027 0.0044939
0 0.962114 0.0909001 0.00389816
0 0.962094 0.0909089 0.00541112
0 0.962105 0.0909022 0.0042714
0 0.962018 0.159263 9.17185
0 0.962098 0.0909065 0.0060283
0 0.962088 0.0909217 0.0094461
0 0.962071 0.0909296 0.0112762
0 0.962086 0.0909256 0.0102529
0 0.962048 0.0909353 0.00872667
0 0.962069 0.0909299 0.010057
0 0.962046 0.0909338 0.00665307
0 0.962126 0.0908903 0.00217638
0 0.962126 0.0908901 0.00193042
0 0.962121 0.0908921 0.00263117
0 0.962116 0.0908977 0.00379131
0 0.962108 0.090901 0.00488667
0 0.962116 0.0908992 0.00437987
0 0.962128 0.090888 0.00214329
0 0.962036 0.159893 9.58784
0 0.962032 0.0909297 0.00755445
0 0.962055 0.0909251 0.00712598
0 0.962092 0.0909111 0.005322
0 0.962076 0.0909226 0.00678298
0 0.962121 0.0908931 0.00250953
0 0.962115 0.0908985 0.0034537
0 0.962105 0.0909023 0.00396984
0 0.962114 0.0908981 0.00323984
0 0.962035 0.090932 0.00748117
0 0.962022 0.159832 9.20448
0 0.9621 0.0909066 0.00615602
0 0.962088 0.0909222 0.00904844
0 0.962067 0.0909295 0.00851959
0 0.962085 0.0909248 0.0087267
0 0.962053 0.0909342 0.010022
0 0.962069 0.0909293 0.00868962
0 0.96211 0.0909009 0.00495143
0 0.962127 0.0908881 0.00123808
0 0.96213 0.0908844 0.000999862
0 0.962123 0.0908917 0.0030077
0 0.962119 0.0908975 0.00430351
0 0.962119 0.0908993 0.00479359
0 0.962129 0.090887 0.00247733
0 0.962131 0.090881 0.001561
0 0.962061 0.0909331 0.0117063
0 0.962048 0.160583 9.06488
0 0.962104 0.0909027 0.00364535
0 0.962055 0.0909258 0.00647988
0 0.962074 0.0909242 0.0064326
0 0.962093 0.0909114 0.00480797
0 0.962056 0.0909279 0.00597732
0 0.962121 0.0908928 0.00212962
0 0.962115 0.0908975 0.00276012
0 0.962127 0.0908883 0.00101766
0 0.962111 0.0909027 0.00324224
0 0.962037 0.0909317 0.00498296
0 0.962025 0.159755 9.22292
0 0.962101 0.0909064 0.00578411
0 0.962089 0.0909212 0.0078374
0 0.962074 0.0909297 0.00993517
0 0.962088 0.0909245 0.00863988
0 0.962079 0.09093 0.0106171
0 0.962111 0.0909014 0.00511599
0 0.962131 0.0908809 0.00053288
0 0.962125 0.0908911 0.00336671
0 0.962121 0.0908984 0.0047756
0 0.96213 0.0908857 0.00267882
0 0.962132 0.0908823 0.00196424
0 0.962066 0.0909308 0.0110443
0 0.962055 0.159617 9.57651
0 0.962102 0.090904 0.00346359
0 0.962076 0.0909213 0.00541743
0 0.96209 0.0909131 0.00456747
0 0.962058 0.0909286 0.00623231
0 0.962076 0.0909214 0.00520609
0 0.962123 0.0908913 0.00163496
0 0.96212 0.090895 0.00211931
0 0.962128 0.0908877 0.00127748
0 0.962115 0.0908998 0.00278713
0 0.962106 0.0909058 0.00365616
0 0.962062 0.0909292 0.00727827
0 0.962041 0.0909309 0.00693744
0 0.962028 0.158772 9.48425
0 0.962103 0.0909065 0.00585517
0 0.962095 0.0909209 0.00858422
0 0.962083 0.0909298 0.0106756
0 0.962095 0.0909243 0.00950815
0 0.962114 0.0909023 0.00540603
0 0.962122 0.0909006 0.00528832
0 0.962129 0.0908862 0.00170147
0 0.962127 0.090892 0.003795
0 0.962131 0.090888 0.00323166
0 0.96213 0.090889 0.00297069
0 0.962131 0.0908894 0.00340964
0 0.962087 0.0909306 0.00985876
0 0.962072 0.0909317 0.0119386
0 0.962061 0.159744 9.1222
0 0.962092 0.090909 0.00397464
0 0.96208 0.0909205 0.00561239
0 0.96208 0.0909255 0.00709323
0 0.962103 0.0909058 0.00404829
0 0.962123 0.0908916 0.00210319
0 0.962115 0.0908998 0.00324954
0 0.962065 0.0909294 0.00841455
0 0.962047 0.090933 0.00907488
0 0.962035 0.159301 9.40519
0 0.962107 0.0909065 0.00609528
0 0.9621 0.0909215 0.00874339
0 0.962101 0.090928 0.00921699
0 0.962116 0.0909024 0.00547566
0 0.962124 0.0908995 0.00518835
0 0.962125 0.0908932 0.00303673
0 0.962126 0.0908968 0.00427811
0 0.962128 0.0908939 0.00424417
0 0.962128 0.0908955 0.00443323
0 0.962089 0.0909321 0.00871545
0 0.962075 0.0909319 0.00937369
0 0.962067 0.158824 9.24131
0 0.962095 0.0909094 0.00469175
0 0.962086 0.0909207 0.00707048
0 0.962108 0.0909031 0.0041238
0 0.962118 0.0908975 0.00357387
0 0.962086 0.0909233 0.00806722
0 0.962069 0.0909305 0.00928773
0 0.962051 0.0909332 0.009998
0 0.96204 0.160573 9.20399
0 0.962111 0.090907 0.00598391
0 0.962104 0.0909243 0.00832754
0 0.962118 0.0909022 0.00544114
0 0.962124 0.0909015 0.00558689
0 0.96212 0.0908994 0.00444903
0 0.962122 0.0909009 0.00511456
0 0.962125 0.0909007 0.00546308
0 0.962123 0.0909023 0.00563055
0 0.962104 0.0909276 0.00908137
0 0.962091 0.0909328 0.00857085
0 0.962076 0.0909333 0.00528452
0 0.962067 0.157485 8.66894
0 0.962099 0.0909071 0.00509538
0 0.962111 0.0909012 0.00435708
0 0.96209 0.090921 0.00799426
0 0.962071 0.0909305 0.00965121
0 0.962054 0.0909324 0.0105531
0 0.962045 0.160632 9.28932
0 0.962113 0.0909076 0.00617306
0 0.962119 0.0909028 0.00562905
0 0.962113 0.0909007 0.00477265
0 0.962115 0.0909018 0.00527251
0 0.962118 0.0909024 0.0055432
0 0.962105 0.0909235 0.00927493
0 0.962092 0.0909321 0.00977015
0 0.962079 0.0909342 0.00856222
0 0.962071 0.158795 8.68627
0 0.962103 0.0909076 0.00572835
0 0.962089 0.0909245 0.0088709
0 0.962073 0.0909287 0.00938238
0 0.962055 0.0909308 0.00953778
0 0.962046 0.159412 9.14487
0 0.962112 0.0909081 0.00672513
0 0.962107 0.0909071 0.00614603
0 0.96211 0.0909074 0.00658207
0 0.962103 0.0909269 0.010518
0 0.962093 0.0909313 0.0107999
0 0.962079 0.0909323 0.0102946
0 0.962071 0.159532 9.23209
0 0.962094 0.0909218 0.00870488
0 0.962075 0.0909285 0.00964046
0 0.962057 0.0909308 0.00939569
0 0.962046 0.15877 9.327
0 0.962094 0.0909255 0.00977147
0 0.962104 0.0909234 0.0100854
0 0.962099 0.0909225 0.00951835
0 0.962099 0.0909264 0.010577
0 0.962092 0.0909322 0.0117204
0 0.962081 0.090933 0.0115804
0 0.962073 0.158951 9.15026
0 0.962078 0.0909297 0.01033
0 0.962061 0.0909311 0.0102468
0 0.96205 0.159315 9.11153
0 0.962081 0.0909301 0.0106644
0 0.962089 0.0909317 0.0115874
0 0.962085 0.0909306 0.0109901
0 0.96208 0.090933 0.012438
0 0.962076 0.157122 8.80259
0 0.962065 0.090931 0.0108569
0 0.962054 0.159244 9.1532
0 0.962067 0.0909307 0.0102853
0 0.962073 0.0909315 0.0109192
0 0.96207 0.158017 9.04772
0 0.962058 0.159398 9.2786
0 0.962061 0.158759 9.13303
VECTORS fa_u float
0.00865384 0.00360044 0
0.00839294 0.00485108 0
0.00945532 0.00250697 0
0.00925262 0.00121271 0
9.15498e-06 3.72256e-06 0
0.00752704 0.00575916 0
0.00668773 0.00668426 0
9.40285e-06 5.54427e-06 0
9.58674e-06 6.18564e-06 0
0.0057639 0.00752614 0
0.00465935 0.00812088 0
0.00943291 3.81856e-05 0
0.00924921 -0.00122765 0
1.09721e-05 1.55055e-06 0
9.93346e-06 3.36625e-06 0
8.93045e-06 2.83311e-06 0
8.57215e-06 3.93503e-06 0
8.10485e-06 6.63097e-06 0
6.96961e-06 7.69465e-06 0
8.34233e-06 5.19268e-06 0
7.80529e-06 5.9403e-06 0
0.00372615 0.00899706 0
0.00250319 0.00924156 0
5.91668e-06 8.31896e-06 0
4.74607e-06 1.01801e-05 0
4.59185e-06 2.51614e-06 0
0.00898209 -0.00242694 0
3.9954e-06 -5.40847e-06 0
0.00865139 -0.00360712 0
8.7388e-06 1.69502e-06 0
7.12675e-06 1.03016e-06 0
7.49529e-06 1.68486e-06 0
0.00122846 0.00939335 0
7.02984e-06 2.64293e-06 0
7.51852e-06 3.83075e-06 0
6.91632e-06 6.76036e-06 0
6.08681e-06 7.50289e-06 0
6.63683e-06 4.55182e-06 0
6.69079e-06 5.73723e-06 0
5.42627e-06 1.02927e-05 0
3.02291e-06 9.87521e-06 0
5.0681e-06 8.42087e-06 0
4.58494e-06 8.84701e-06 0
-7.46283e-06 0.00944908 0
6.30161e-06 -1.68677e-06 0
8.20691e-06 -6.39102e-06 0
6.9254e-06 -4.44385e-06 0
0.00811307 -0.00466655 0
9.99465e-06 -9.02767e-06 0
0.00731967 -0.00559729 0
6.61177e-06 4.84532e-07 0
6.41054e-06 -5.79276e-07 0
4.76819e-06 7.40099e-07 0
1.42837e-06 1.02753e-05 0
2.00198e-07 1.023e-05 0
4.79106e-06 2.16644e-06 0
5.60693e-06 6.07409e-06 0
5.13554e-06 7.17719e-06 0
4.37507e-06 3.48711e-06 0
3.6181e-06 9.0159e-06 0
2.17233e-06 9.07284e-06 0
4.25303e-06 7.32115e-06 0
3.70354e-06 8.1177e-06 0
-0.00123171 0.00922958 0
5.93684e-06 -2.31443e-06 0
8.2063e-06 -6.3935e-06 0
6.82e-06 -4.45255e-06 0
1.07104e-05 -6.2227e-06 0
8.60922e-06 -6.73858e-06 0
0.00649344 -0.0065391 0
7.0963e-06 -7.99168e-06 0
0.00583049 -0.00761018 0
3.99143e-06 9.31071e-07 0
4.4989e-06 -9.38212e-07 0
4.02455e-06 -2.76703e-07 0
6.61014e-07 9.13507e-06 0
-7.78371e-07 9.97455e-06 0
-8.29451e-08 8.9932e-06 0
3.74033e-06 2.06859e-06 0
3.55048e-06 1.18446e-06 0
3.62362e-06 4.41597e-06 0
3.34243e-06 2.97743e-06 0
2.35103e-06 7.38796e-06 0
1.21688e-06 7.75276e-06 0
2.55714e-06 5.057e-06 0
-0.00238402 0.00889029 0
4.41966e-06 -2.81621e-06 0
6.82268e-06 -5.26483e-06 0
8.2341e-06 -7.45446e-06 0
7.47836e-06 -6.33877e-06 0
7.41528e-06 -1.07594e-05 0
7.3613e-06 -8.49025e-06 0
0.00466008 -0.0079948 0
8.6471e-06 -9.69732e-06 0
3.41539e-06 1.41351e-07 0
3.92811e-06 -1.78253e-06 0
3.56444e-06 -9.80453e-07 0
3.55869e-06 -2.99247e-06 0
0.0034309 -0.00823963 0
-5.18304e-07 8.80983e-06 0
4.17764e-07 7.4646e-06 0
-8.80787e-07 8.01264e-06 0
-5.34652e-07 7.55279e-06 0
2.57556e-06 5.19402e-07 0
3.0085e-06 1.94283e-06 0
2.6527e-06 3.62744e-06 0
2.7058e-06 2.80611e-06 0
1.24625e-06 5.26565e-06 0
1.71122e-06 3.91364e-06 0
-0.00349873 0.00847831 0
4.33139e-06 -4.19279e-06 0
6.55072e-06 -6.80565e-06 0
6.89857e-06 -8.91978e-06 0
6.38731e-06 -8.02021e-06 0
6.49873e-06 -5.82419e-06 0
5.99397e-06 -8.07559e-06 0
8.25516e-07 -6.60166e-06 0
2.13842e-06 -4.04757e-07 0
1.84406e-06 5.70941e-07 0
2.459e-06 -9.36152e-07 0
3.16322e-06 -2.08998e-06 0
2.92035e-06 -3.91804e-06 0
2.96053e-06 -3.22777e-06 0
1.5637e-06 -1.46579e-06 0
0.0024478 -0.00927011 0
-2.79421e-06 7.0187e-06 0
-1.56653e-06 6.95167e-06 0
-1.00021e-08 5.32199e-06 0
-1.28184e-06 6.66076e-06 0
1.91604e-06 1.62065e-06 0
1.77338e-06 2.96364e-06 0
6.28393e-07 3.91979e-06 0
9.23901e-07 3.10532e-06 0
-3.02884e-06 6.84061e-06 0
-0.00460058 0.00797227 0
3.47802e-06 -5.07937e-06 0
4.98899e-06 -7.54879e-06 0
3.47309e-06 -7.77953e-06 0
3.97079e-06 -7.77099e-06 0
-9.57328e-07 -9.9762e-06 0
1.15646e-06 -8.61233e-06 0
1.96889e-06 -4.54314e-06 0
8.66342e-07 8.84473e-07 0
9.07002e-07 -4.20799e-07 0
1.86607e-06 -2.35882e-06 0
2.08523e-06 -3.76458e-06 0
1.26604e-06 -4.62338e-06 0
8.37185e-07 -2.33158e-06 0
1.75647e-07 -1.55109e-06 0
-4.38978e-07 -1.16981e-05 0
0.00118096 -0.00898762 0
-4.76078e-07 3.61413e-06 0
-2.49122e-06 5.98186e-06 0
-2.05394e-06 6.09587e-06 0
-1.11592e-06 4.67668e-06 0
-3.35982e-06 4.94367e-06 0
7.25472e-07 2.00225e-06 0
-5.97761e-08 2.75947e-06 0
-3.61645e-08 1.01702e-06 0
-1.15141e-06 3.03091e-06 0
-2.83062e-06 4.10092e-06 0
-0.0056114 0.00731945 0
1.96484e-06 -5.44015e-06 0
2.04513e-06 -7.56587e-06 0
-1.84461e-07 -9.93346e-06 0
7.44991e-07 -8.6077e-06 0
-7.97079e-07 -1.05871e-05 0
7.39743e-07 -5.06223e-06 0
-3.59692e-07 -3.93171e-07 0
6.57137e-07 -3.30196e-06 0
1.54956e-07 -4.77309e-06 0
-2.25244e-07 -2.66934e-06 0
-1.0292e-06 -1.67301e-06 0
-8.71936e-07 -1.10098e-05 0
3.08507e-05 -0.00957646 0
-1.8496e-06 2.92839e-06 0
-2.78105e-06 4.64912e-06 0
-2.35438e-06 3.91391e-06 0
-5.31576e-06 3.25337e-06 0
-3.8299e-06 3.52636e-06 0
-6.28105e-07 1.5095e-06 0
-1.19214e-06 1.75222e-06 0
-1.18674e-06 4.72862e-07 0
-2.09176e-06 1.84192e-06 0
-2.91875e-06 2.20191e-06 0
-6.84253e-06 2.48052e-06 0
-6.83751e-06 1.17323e-06 0
-0.00670909 0.00670366 0
3.22917e-07 -5.84626e-06 0
-2.20344e-07 -8.58139e-06 0
-1.79641e-06 -1.05234e-05 0
-1.22573e-06 -9.42881e-06 0
-4.73588e-07 -5.38525e-06 0
-1.09666e-06 -5.17336e-06 0
-1.62171e-06 -5.1484e-07 0
-8.65563e-07 -3.69497e-06 0
-1.32667e-06 -2.94679e-06 0
-2.42465e-06 -1.71641e-06 0
-2.19648e-06 -2.6079e-06 0
-2.06824e-06 -9.63938e-06 0
-3.2323e-06 -1.14927e-05 0
-0.00119779 -0.00904322 0
-3.16775e-06 2.40066e-06 0
-5.04778e-06 2.45335e-06 0
-6.71289e-06 2.29148e-06 0
-3.7826e-06 1.44242e-06 0
-2.04396e-06 4.95625e-07 0
-3.13655e-06 8.49431e-07 0
-8.10586e-06 2.25824e-06 0
-8.58946e-06 2.92825e-06 0
-0.0074642 0.00572219 0
-1.03156e-06 -6.00735e-06 0
-1.88769e-06 -8.53718e-06 0
-3.0296e-06 -8.70485e-06 0
-1.72342e-06 -5.19737e-06 0
-2.14317e-06 -4.72502e-06 0
-2.98066e-06 -5.80861e-07 0
-3.87376e-06 -1.81554e-06 0
-2.3736e-06 -3.51839e-06 0
-3.4294e-06 -2.80939e-06 0
-2.99945e-06 -8.18306e-06 0
1.04613e-06 -9.31514e-06 0
-0.00236513 -0.00893353 0
-4.5139e-06 1.27957e-06 0
-6.88139e-06 1.62425e-06 0
-4.10841e-06 3.55863e-07 0
-3.56844e-06 -1.96923e-07 0
-7.99204e-06 1.09877e-06 0
-9.07242e-06 1.98825e-06 0
-9.75064e-06 2.2102e-06 0
-0.00796942 0.00460454 0
-2.25951e-06 -5.54092e-06 0
-3.89143e-06 -7.36238e-06 0
-2.76136e-06 -4.68837e-06 0
-3.26273e-06 -4.53518e-06 0
-4.27575e-06 -1.22956e-06 0
-4.55106e-06 -2.33378e-06 0
-3.91726e-06 -3.80793e-06 0
-4.64795e-06 -3.178e-06 0
-5.72836e-06 -7.04679e-06 0
-4.92115e-06 -7.01725e-06 0
-3.10004e-06 -4.27971e-06 0
-0.0032919 -0.0080196 0
-5.09151e-06 1.98665e-07 0
-4.30561e-06 -6.67713e-07 0
-7.99223e-06 -1.80071e-07 0
-9.60929e-06 8.9849e-07 0
-1.03366e-05 2.12702e-06 0
-0.00858298 0.00355301 0
-3.79813e-06 -4.8663e-06 0
-3.80932e-06 -4.1443e-06 0
-4.43153e-06 -1.77194e-06 0
-4.49887e-06 -2.74945e-06 0
-4.31612e-06 -3.47824e-06 0
-6.6308e-06 -6.48513e-06 0
-7.04817e-06 -6.76602e-06 0
-6.65382e-06 -5.38872e-06 0
-0.00436381 -0.00751056 0
-5.62295e-06 -1.09381e-06 0
-8.8145e-06 -9.98713e-07 0
-9.37931e-06 -2.40067e-07 0
-9.4244e-06 1.46623e-06 0