# vtk DataFile Version 2.0
CellBP Time: 2.36
ASCII
DATASET UNSTRUCTURED_GRID
POINTS 296 double
-9.07041 -3.72779 0
-8.49908 -4.88579 0
-9.48556 -2.50505 0
-9.73793 -1.23857 0
-8.35778 -2.81877 0
-7.78213 -5.95981 0
-6.93055 -6.93059 0
-7.91743 -3.87481 0
-7.34286 -4.86797 0
-5.95992 -7.78226 0
-4.8861 -8.49944 0
-9.82326 0.050044 0
-9.73867 1.33869 0
-8.65788 -1.68398 0
-8.78653 -0.529634 0
-7.5899 -2.00418 0
-7.22595 -2.90655 0
-6.63784 -5.77906 0
-5.82259 -6.59712 0
-6.79047 -3.88902 0
-6.22077 -4.67606 0
-3.7276 -9.06997 0
-2.50522 -9.48639 0
-4.90663 -7.30906 0
-3.91313 -7.88651 0
-8.79299 0.643416 0
-9.48692 2.60536 0
-8.62352 1.77413 0
-9.07129 3.82819 0
-7.7445 -0.929006 0
-7.79474 0.0802616 0
-6.95276 -1.31591 0
-1.23865 -9.73779 0
-6.44167 -2.15318 0
-6.31957 -3.05622 0
-5.53671 -5.47475 0
-4.79606 -6.11568 0
-5.65921 -3.75712 0
-5.26956 -4.56173 0
-2.86626 -8.36423 0
-1.77862 -8.64055 0
-3.92827 -6.72379 0
-3.05672 -7.15287 0
0.0499893 -9.82258 0
-7.70575 1.14355 0
-8.33885 2.91552 0
-7.55214 2.11204 0
-8.50059 4.98668 0
-7.88034 3.97838 0
-7.78268 6.06021 0
-6.77892 -0.39687 0
-6.95677 0.552568 0
-5.7716 -1.00344 0
-0.59086 -8.81004 0
0.565705 -8.77123 0
-5.30331 -2.48036 0
-4.49212 -5.09591 0
-3.90263 -5.77553 0
-4.43907 -3.80488 0
-2.06249 -7.56225 0
-1.13552 -7.78616 0
-2.99465 -6.10229 0
-2.3091 -6.62005 0
1.33879 -9.73908 0
-6.68971 1.4221 0
-7.17247 3.11824 0
-6.65952 2.3731 0
-7.29505 4.98888 0
-6.71837 4.00323 0
-6.93172 7.03174 0
-6.5728 5.89443 0
-5.96062 7.88323 0
-4.45324 -1.1811 0
-5.81482 0.513778 0
-4.6563 -0.0103758 0
0.00851526 -7.84846 0
1.73865 -8.64422 0
0.949005 -7.76381 0
-4.03864 -2.40646 0
-3.48564 -1.39123 0
-3.29463 -4.80553 0
-3.26597 -3.26788 0
-1.37864 -6.67577 0
-0.508766 -7.02528 0
-1.97563 -5.53726 0
2.60538 -9.48683 0
-5.50757 2.03701 0
-6.09501 3.07236 0
-6.10542 4.8699 0
-5.76203 3.99169 0
-5.76164 6.71755 0
-5.45245 5.61971 0
-4.88683 8.60081 0
-4.83877 7.40505 0
-3.50159 -0.424308 0
-4.44946 1.24909 0
-3.71158 0.5921 0
-4.06232 2.31991 0
-3.72835 9.17163 0
2.86278 -8.33337 0
0.419711 -6.79581 0
2.02214 -7.52632 0
1.30616 -6.90599 0
-2.44473 -0.87383 0
-2.83846 -2.13119 0
-2.29449 -4.09753 0
-2.32571 -2.97369 0
-0.442399 -5.86147 0
-1.22277 -4.49932 0
3.82845 -9.07199 0
-4.79006 3.39199 0
-5.08826 4.59444 0
-4.6475 6.28189 0
-4.53917 5.3601 0
-3.84402 7.99398 0
-3.82703 6.84623 0
-2.78352 8.42351 0
-1.64907 -0.137893 0
-1.45028 -0.890598 0
-2.48918 0.507282 0
-3.25373 1.44421 0
-3.23917 3.31672 0
-2.91108 2.37186 0
-1.35512 0.627128 0
-2.5054 9.58689 0
3.93301 -7.8876 0
2.96478 -7.1583 0
0.954152 -5.82238 0
2.07448 -6.41598 0
-1.68301 -1.99211 0
-1.43448 -3.27789 0
0.09023 -4.74723 0
-0.566193 -3.69457 0
4.93256 -7.31941 0
4.9866 -8.50045 0
-3.7772 4.55192 0
-3.73504 5.75258 0
-2.88821 7.29048 0
-3.00994 6.35424 0
-1.6627 8.73443 0
-1.94028 7.62002 0
-2.3385 4.05189 0
-0.730742 -1.32727 0
-0.836906 -0.257622 0
-1.93626 1.68084 0
-2.12584 2.87596 0
-1.30662 3.54485 0
-0.869471 1.35087 0
-0.282365 0.456058 0
-0.533566 8.8725 0
-1.23867 9.83855 0
1.11285 -4.57486 0
3.9105 -6.71792 0
2.98817 -6.09527 0
2.11802 -5.42535 0
4.7849 -6.20596 0
-0.558868 -2.47689 0
0.495136 -3.46398 0
0.0535576 -1.61051 0
1.48197 -3.68233 0
5.86777 -6.61535 0
6.06071 -7.78317 0
-2.47587 5.34889 0
-2.13064 6.53504 0
-0.904156 7.80407 0
-1.27246 6.93271 0
0.0862172 7.88119 0
-1.14452 4.49499 0
0.150326 -0.617659 0
-0.797445 2.4886 0
-0.331653 3.6009 0
0.0631173 1.51277 0
0.74146 0.473434 0
0.646856 8.8752 0
0.0500186 9.92361 0
2.38118 -4.28555 0
3.85957 -5.641 0
3.00172 -5.21323 0
5.5744 -5.49246 0
4.69154 -5.28364 0
0.629699 -2.29344 0
1.25623 -2.95137 0
0.757513 -1.39149 0
2.16447 -3.13601 0
2.99399 -3.47684 0
6.15594 -4.79239 0
6.65642 -5.77003 0
7.0327 -6.9327 0
-1.01972 5.82089 0
-0.372652 6.88434 0
1.12277 7.77052 0
0.558042 7.08063 0
-0.000760136 4.72553 0
0.607045 3.82806 0
1.33896 -0.641915 0
0.539132 2.65117 0
0.966127 1.57499 0
1.91028 0.213874 0
1.61483 1.06507 0
2.12969 7.58462 0
1.79946 8.71359 0
1.33881 9.83896 0
3.82322 -4.35206 0
5.11723 -4.44958 0
5.84653 -3.93566 0
3.78435 -3.20135 0
1.81238 -1.88273 0
3.01938 -2.5741 0
6.78438 -3.94845 0
7.38256 -4.89752 0
7.88351 -5.96096 0
0.483412 5.88222 0
1.42837 6.74285 0
2.37469 6.67008 0
1.2101 4.55662 0
1.4883 3.3979 0
2.43595 -0.692062 0
2.82825 0.142612 0
1.78901 2.16299 0
2.61208 1.15023 0
3.07252 7.17129 0
2.9047 8.37822 0
2.60573 9.58787 0
4.91193 -3.32831 0
6.12166 -3.10916 0
4.17333 -2.27551 0
3.24473 -1.50304 0
6.73251 -2.31343 0
7.23335 -3.04307 0
7.96634 -3.91295 0
8.60003 -4.88636 0
2.0239 5.60062 0
3.08706 6.1547 0
2.36419 4.1274 0
2.42032 3.06119 0
3.52603 -0.460907 0
3.61608 0.613349 0
2.96214 2.28831 0
3.54598 1.52543 0
4.01303 5.89938 0
3.98539 6.79474 0
3.97423 7.94054 0
3.82892 9.17297 0
5.56978 -1.91647 0
4.50984 -1.12975 0
6.71542 -1.33639 0
7.59432 -2.03688 0
8.39917 -2.86203 0
9.17152 -3.7282 0
3.41977 4.87794 0
3.3395 3.38588 0
4.69198 0.130093 0
4.51988 1.31017 0
4.06597 2.44418 0
4.57181 5.15387 0
4.8451 6.1926 0
4.98187 7.38257 0
4.98771 8.60237 0
5.88478 -0.434989 0
7.01286 -0.488372 0
7.76182 -1.08559 0
8.68735 -1.74643 0
9.58736 -2.5055 0
4.55355 3.82851 0
5.81923 1.09886 0
5.37263 2.53558 0
5.3819 4.62215 0
5.6141 5.52545 0
5.89917 6.67415 0
6.06064 7.88329 0
6.84837 0.463689 0
7.85608 -0.0256461 0
8.86339 -0.584524 0
9.83965 -1.23881 0
6.96302 1.34993 0
5.72316 3.77981 0
6.54385 2.19829 0
6.38264 3.08916 0
6.29491 4.68882 0
6.69561 5.84003 0
7.03197 7.03188 0
7.78736 0.967979 0
8.86275 0.572961 0
9.92389 0.0500153 0
7.61927 2.00509 0
6.832 3.90587 0
7.27255 2.948 0
7.38125 4.8877 0
7.88477 6.06174 0
8.72635 1.72757 0
9.83949 1.33882 0
8.42428 2.83888 0
7.98478 3.91785 0
8.60195 4.98753 0
9.58718 2.60545 0
9.17247 3.82869 0
CELLS 542 2168
3 2 0 4
3 0 1 7
3 4 0 7
3 1 5 8
3 7 1 8
3 3 2 13
3 13 2 4
3 11 3 14
3 14 3 13
3 13 4 15
3 4 7 16
3 15 4 16
3 5 6 17
3 8 5 17
3 6 9 18
3 17 6 18
3 7 8 19
3 16 7 19
3 8 17 20
3 19 8 20
3 9 10 23
3 18 9 23
3 10 21 24
3 23 10 24
3 12 11 25
3 25 11 14
3 26 12 27
3 27 12 25
3 14 13 29
3 29 13 15
3 25 14 30
3 30 14 29
3 29 15 31
3 15 16 33
3 31 15 33
3 16 19 34
3 33 16 34
3 17 18 35
3 20 17 35
3 18 23 36
3 35 18 36
3 19 20 37
3 34 19 37
3 20 35 38
3 37 20 38
3 21 22 39
3 24 21 39
3 22 32 40
3 39 22 40
3 23 24 41
3 36 23 41
3 24 39 42
3 41 24 42
3 27 25 44
3 44 25 30
3 28 26 45
3 45 26 27
3 45 27 46
3 46 27 44
3 47 28 48
3 48 28 45
3 30 29 50
3 50 29 31
3 44 30 51
3 51 30 50
3 50 31 52
3 31 33 52
3 32 43 53
3 40 32 53
3 53 43 54
3 33 34 55
3 34 37 55
3 33 55 52
3 35 36 56
3 38 35 56
3 36 41 57
3 56 36 57
3 37 38 58
3 38 56 58
3 37 58 55
3 39 40 59
3 42 39 59
3 40 53 60
3 59 40 60
3 41 42 61
3 57 41 61
3 42 59 62
3 61 42 62
3 43 63 54
3 46 44 64
3 64 44 51
3 48 45 65
3 65 45 46
3 65 46 66
3 66 46 64
3 49 47 67
3 67 47 48
3 67 48 68
3 68 48 65
3 69 49 70
3 70 49 67
3 52 55 72
3 64 51 73
3 51 50 73
3 50 52 73
3 73 52 74
3 74 52 72
3 53 54 75
3 60 53 75
3 54 63 76
3 54 76 77
3 75 54 77
3 55 58 78
3 72 55 78
3 72 78 79
3 56 57 80
3 57 61 80
3 56 80 58
3 58 80 81
3 78 58 81
3 59 60 82
3 62 59 82
3 60 75 83
3 82 60 83
3 61 62 84
3 62 82 84
3 61 84 80
3 63 85 76
3 66 64 86
3 64 73 86
3 68 65 87
3 87 65 66
3 87 66 86
3 70 67 88
3 88 67 68
3 88 68 89
3 89 68 87
3 71 69 90
3 90 69 70
3 90 70 91
3 91 70 88
3 92 71 93
3 93 71 90
3 74 72 94
3 94 72 79
3 86 73 95
3 95 73 74
3 95 74 96
3 96 74 94
3 97 86 95
3 76 85 99
3 75 77 100
3 83 75 100
3 76 99 101
3 77 76 101
3 77 101 102
3 100 77 102
3 94 79 103
3 78 81 104
3 79 78 104
3 79 104 103
3 80 84 105
3 81 80 105
3 81 105 106
3 104 81 106
3 82 83 107
3 83 100 107
3 82 107 84
3 84 107 108
3 105 84 108
3 85 109 99
3 89 87 110
3 87 86 110
3 110 86 97
3 91 88 111
3 111 88 89
3 111 89 110
3 93 90 112
3 112 90 91
3 112 91 113
3 113 91 111
3 98 92 114
3 114 92 93
3 114 93 115
3 115 93 112
3 116 98 114
3 117 103 118
3 96 94 119
3 94 103 119
3 119 103 117
3 97 95 120
3 120 95 96
3 120 96 119
3 121 110 97
3 121 97 122
3 122 97 120
3 123 119 117
3 124 98 116
3 99 109 125
3 99 125 126
3 101 99 126
3 100 102 127
3 100 127 107
3 101 126 128
3 102 101 128
3 102 128 127
3 104 106 129
3 104 129 103
3 103 129 118
3 105 108 130
3 106 105 130
3 106 130 129
3 107 127 131
3 108 107 131
3 108 131 132
3 108 132 130
3 109 134 125
3 125 134 133
3 113 111 135
3 111 110 135
3 135 110 121
3 115 112 136
3 136 112 113
3 136 113 135
3 116 114 137
3 137 114 115
3 137 115 138
3 138 115 136
3 139 124 116
3 139 116 140
3 140 116 137
3 141 135 121
3 118 129 142
3 118 142 143
3 117 118 143
3 123 117 143
3 122 120 144
3 120 119 144
3 144 119 123
3 141 121 145
3 145 121 122
3 145 122 144
3 146 141 145
3 147 144 123
3 147 123 148
3 143 148 123
3 150 124 139
3 149 150 139
3 131 127 151
3 125 133 152
3 126 125 152
3 126 152 153
3 128 126 153
3 128 153 154
3 128 154 127
3 127 154 151
3 152 133 155
3 130 132 156
3 130 156 129
3 129 156 142
3 131 151 157
3 132 131 157
3 132 157 156
3 156 158 142
3 157 151 159
3 133 160 155
3 134 161 133
3 133 161 160
3 138 136 162
3 136 135 162
3 162 135 141
3 140 137 163
3 163 137 138
3 163 138 162
3 149 139 164
3 164 139 140
3 164 140 165
3 165 140 163
3 166 149 164
3 167 162 141
3 167 141 146
3 142 158 168
3 143 142 168
3 143 168 148
3 146 145 169
3 145 144 169
3 169 144 147
3 170 167 146
3 170 146 169
3 171 169 147
3 171 147 148
3 171 148 172
3 168 172 148
3 173 149 166
3 174 150 149
3 173 174 149
3 154 175 151
3 151 175 159
3 152 155 176
3 153 152 176
3 153 176 177
3 153 177 154
3 154 177 175
3 155 160 178
3 155 178 179
3 176 155 179
3 156 157 180
3 156 180 158
3 157 159 181
3 157 181 180
3 158 180 182
3 158 182 168
3 159 175 183
3 159 183 181
3 175 184 183
3 160 186 178
3 178 186 185
3 161 187 160
3 160 187 186
3 165 163 188
3 163 162 188
3 188 162 167
3 166 164 189
3 189 164 165
3 189 165 188
3 190 173 166
3 190 166 191
3 191 166 189
3 192 188 167
3 192 167 170
3 193 192 170
3 182 194 168
3 194 172 168
3 193 170 195
3 170 169 195
3 195 169 171
3 196 195 171
3 196 171 172
3 194 197 172
3 197 198 172
3 198 196 172
3 200 173 190
3 199 200 190
3 201 174 173
3 200 201 173
3 176 179 202
3 177 176 202
3 177 202 175
3 175 202 184
3 178 185 203
3 178 203 179
3 179 203 202
3 203 185 204
3 202 205 184
3 183 206 181
3 180 181 206
3 180 206 182
3 182 206 194
3 183 184 207
3 205 207 184
3 183 207 206
3 185 208 204
3 186 209 185
3 185 209 208
3 187 210 186
3 186 210 209
3 191 189 211
3 189 188 211
3 211 188 192
3 199 190 212
3 212 190 191
3 212 191 211
3 213 199 212
3 214 211 192
3 214 192 193
3 215 214 193
3 215 193 195
3 206 216 194
3 216 197 194
3 216 217 197
3 215 195 218
3 218 195 196
3 198 218 196
3 217 219 197
3 219 218 198
3 197 219 198
3 220 199 213
3 221 200 199
3 220 221 199
3 222 201 200
3 221 222 200
3 203 204 223
3 203 223 202
3 202 223 205
3 204 208 224
3 204 224 223
3 205 223 225
3 205 225 207
3 207 225 226
3 207 226 206
3 226 216 206
3 208 228 224
3 224 228 227
3 209 229 208
3 229 228 208
3 210 230 209
3 209 230 229
3 213 212 231
3 212 211 231
3 231 211 214
3 232 220 213
3 232 213 231
3 233 231 214
3 233 214 215
3 234 233 215
3 234 215 218
3 226 235 216
3 235 217 216
3 235 236 217
3 217 236 219
3 237 234 218
3 237 218 219
3 236 238 219
3 238 237 219
3 240 220 232
3 239 240 232
3 241 221 220
3 240 241 220
3 242 222 221
3 241 242 221
3 224 227 243
3 224 243 223
3 223 243 225
3 225 243 244
3 225 244 226
3 226 244 235
3 227 245 243
3 228 246 227
3 227 246 245
3 229 247 228
3 228 247 246
3 230 248 229
3 229 248 247
3 239 232 249
3 232 231 249
3 249 231 233
3 250 249 233
3 250 233 234
3 237 250 234
3 244 251 235
3 235 251 236
3 251 252 236
3 236 252 238
3 252 253 238
3 253 250 237
3 253 237 238
3 254 239 249
3 255 240 239
3 254 255 239
3 256 241 240
3 255 256 240
3 257 242 241
3 256 257 241
3 245 258 243
3 243 258 244
3 244 258 251
3 245 259 258
3 246 260 245
3 245 260 259
3 247 261 246
3 246 261 260
3 248 262 247
3 247 262 261
3 254 249 263
3 263 249 250
3 253 263 250
3 258 264 251
3 251 264 252
3 264 265 252
3 265 263 253
3 252 265 253
3 266 254 263
3 267 255 254
3 266 267 254
3 268 256 255
3 267 268 255
3 269 257 256
3 268 269 256
3 259 270 258
3 270 264 258
3 260 271 259
3 259 271 270
3 261 272 260
3 260 272 271
3 262 273 261
3 273 272 261
3 270 274 264
3 275 266 263
3 275 263 265
3 274 276 264
3 276 265 264
3 276 277 265
3 277 275 265
3 278 267 266
3 275 278 266
3 279 268 267
3 278 279 267
3 280 269 268
3 279 280 268
3 271 281 270
3 270 281 274
3 272 282 271
3 271 282 281
3 273 283 272
3 272 283 282
3 281 284 274
3 274 284 276
3 285 278 275
3 277 285 275
3 284 286 276
3 286 285 277
3 276 286 277
3 287 279 278
3 285 287 278
3 288 280 279
3 287 288 279
3 282 289 281
3 281 289 284
3 283 290 282
3 282 290 289
3 289 291 284
3 284 291 286
3 291 292 286
3 292 287 285
3 286 292 285
3 293 288 287
3 292 293 287
3 290 294 289
3 289 294 291
3 294 295 291
3 295 293 292
3 291 295 292
CELL_TYPES 542
5
5
5
5
5
5
5
5
5
5
5
5
5
5
5
5
5
5
5
5
5
5
5
5
5
5
5
5
5
5
5
5
5
5
5
5
5
5
5
5
5
5
5
5
5
5
5
5
5
5
5
5
5
5
5
5
5
5
5
5
5
5
5
5
5
5
5
5
5
5
5
5
5
5
5
5
5
5
5
5
5
5
5
5
5
5
5
5
5
5
5
5
5
5
5
5
5
5
5
5
5
5
5
5
5
5
5
5
5
5
5
5
5
5
5
5
5
5
5
5
5
5
5
5
5
5
5
5
5
5
5
5
5
5
5
5
5
5
5
5
5
5
5
5
5
5
5
5
5
5
5
5
5
5
5
5
5
5
5
5
5
5
5
5
5
5
5
5
5
5
5
5
5
5
5
5
5
5
5
5
5
5
5
5
5
5
5
5
5
5
5
5
5
5
5
5
5
5
5
5
5
5
5
5
5
5
5
5
5
5
5
5
5
5
5
5
5
5
5
5
5
5
5
5
5
5
5
5
5
5
5
5
5
5
5
5
5
5
5
5
5
5
5
5
5
5
5
5
5
5
5
5
5
5
5
5
5
5
5
5
5
5
5
5
5
5
5
5
5
5
5
5
5
5
5
5
5
5
5
5
5
5
5
5
5
5
5
5
5
5
5
5
5
5
5
5
5
5
5
5
5
5
5
5
5
5
5
5
5
5
5
5
5
5
5
5
5
5
5
5
5
5
5
5
5
5
5
5
5
5
5
5
5
5
5
5
5
5
5
5
5
5
5
5
5
5
5
5
5
5
5
5
5
5
5
5
5
5
5
5
5
5
5
5
5
5
5
5
5
5
5
5
5
5
5
5
5
5
5
5
5
5
5
5
5
5
5
5
5
5
5
5
5
5
5
5
5
5
5
5
5
5
5
5
5
5
5
5
5
5
5
5
5
5
5
5
5
5
5
5
5
5
5
5
5
5
5
5
5
5
5
5
5
5
5
5
5
5
5
5
5
5
5
5
5
5
5
5
5
5
5
5
5
5
5
5
5
5
5
5
5
5
5
5
5
5
5
5
5
5
5
5
5
5
5
5
5
5
5
5
5
5
5
5
5
5
5
5
5
5
5
5
5
5
5
5
5
5
5
5
5
5
5
5
5
5
5
5
5
5
5
5
5
5
5
5
5
5
5
5
5
5
5
5
5
5
5
5
5
5
5
5
5
5
5
5
5
5
5
5
5
5
POINT_DATA 296
SCALARS concentrations float 4
LOOKUP_TABLE default
0 0.974769 0.190775 12.3621
0 0.974779 0.190662 12.6996
0 0.974768 0.190147 12.6135
0 0.974765 0.189302 12.5059
0 0.97478 0.0909384 0.00951553
0 0.974789 0.190237 12.3458
0 0.974785 0.189684 12.6922
0 0.974784 0.0909388 0.00987574
0 0.974793 0.0909389 0.0123488
0 0.974779 0.189588 12.376
0 0.974777 0.189929 12.5175
0 0.974759 0.188113 12.0374
0 0.974765 0.188506 12.556
0 0.974779 0.0909373 0.0104823
0 0.974774 0.0909375 0.00884881
0 0.974801 0.090937 0.0100926
0 0.974804 0.0909365 0.0101363
0 0.974796 0.0909377 0.0125048
0 0.974791 0.0909357 0.0108061
0 0.974808 0.0909366 0.0109217
0 0.97481 0.0909359 0.0114564
0 0.974777 0.191275 12.6415
0 0.974773 0.192174 12.6439
0 0.974788 0.0909355 0.0101315
0 0.974787 0.0909357 0.0106886
0 0.974774 0.0909375 0.00841683
0 0.974773 0.187937 12.2146
0 0.97478 0.090936 0.0100102
0 0.974777 0.188625 12.3476
0 0.974799 0.090937 0.00981823
0 0.974798 0.0909352 0.00918488
0 0.974821 0.0909291 0.00891361
0 0.97477 0.189424 12.5474
0 0.974825 0.0909257 0.0086278
0 0.974823 0.0909298 0.00962242
0 0.97481 0.0909353 0.0112103
0 0.974808 0.0909349 0.0106433
0 0.974828 0.0909262 0.00942839
0 0.974826 0.0909303 0.0103319
0 0.974786 0.0909371 0.010927
0 0.974781 0.0909385 0.0100918
0 0.974806 0.0909347 0.0103816
0 0.974805 0.0909349 0.0103776
0 0.974776 0.188809 12.4895
0 0.9748 0.0909366 0.00967943
0 0.974786 0.090936 0.010579
0 0.974803 0.0909372 0.0103565
0 0.97478 0.187774 12.1432
0 0.974787 0.090935 0.00984169
0 0.974785 0.187444 12.8038
0 0.974823 0.0909264 0.00833446
0 0.974819 0.0909298 0.0087943
0 0.974838 0.0909101 0.00595373
0 0.974783 0.0909374 0.0102129
0 0.974787 0.0909358 0.0113722
0 0.974839 0.0909105 0.00633117
0 0.974828 0.0909267 0.00946786
0 0.974824 0.0909295 0.009676
0 0.97484 0.0909113 0.00669747
0 0.974804 0.090935 0.0100928
0 0.974804 0.0909349 0.00995332
0 0.974826 0.0909271 0.00911577
0 0.974822 0.0909302 0.00946203
0 0.974778 0.187283 12.1704
0 0.974825 0.0909257 0.00836717
0 0.974805 0.0909361 0.0103713
0 0.974823 0.0909295 0.00921376
0 0.974791 0.0909344 0.0106521
0 0.974808 0.0909342 0.0102491
0 0.974783 0.187197 12.1143
0 0.974793 0.0909332 0.010979
0 0.974779 0.187305 12.1836
0 0.974849 0.0909041 0.00517447
0 0.974838 0.0909102 0.00586139
0 0.974849 0.0909041 0.0050549
0 0.974805 0.0909349 0.0102863
0 0.974787 0.0909342 0.0103226
0 0.974805 0.0909348 0.0105058
0 0.97485 0.0909043 0.00532838
0 0.974858 0.0909017 0.00492191
0 0.97484 0.0909114 0.00657966
0 0.97485 0.090905 0.0054981
0 0.974825 0.0909247 0.0083782
0 0.974821 0.0909269 0.00874735
0 0.974839 0.0909115 0.00635201
0 0.974778 0.187789 12.2527
0 0.974839 0.0909095 0.00581164
0 0.974827 0.0909254 0.00866472
0 0.974809 0.0909341 0.0105541
0 0.974825 0.0909286 0.00935885
0 0.97479 0.0909334 0.00993604
0 0.974809 0.0909342 0.0103977
0 0.974776 0.187143 12.1757
0 0.974787 0.0909331 0.00908919
0 0.97486 0.0908998 0.00454193
0 0.974849 0.0909043 0.00502733
0 0.974859 0.0909011 0.00466231
0 0.97485 0.0909037 0.0048942
0 0.974778 0.187846 12.2869
0 0.974788 0.0909333 0.0101394
0 0.974825 0.0909261 0.00875563
0 0.974805 0.0909319 0.00990954
0 0.974822 0.090929 0.00934318
0 0.974866 0.0908944 0.00368453
0 0.97486 0.0909004 0.00472419
0 0.97485 0.0909052 0.00543691
0 0.974859 0.0909024 0.00501762
0 0.974838 0.0909118 0.00626046
0 0.974849 0.0909046 0.00518021
0 0.974779 0.187176 12.1879
0 0.97484 0.0909093 0.00583956
0 0.974828 0.0909257 0.00881143
0 0.974807 0.0909343 0.00987061
0 0.974825 0.09093 0.00938059
0 0.974787 0.0909333 0.00919309
0 0.974807 0.090934 0.00961493
0 0.974789 0.0909333 0.0100847
0 0.974871 0.0908914 0.00323943
0 0.974871 0.0908913 0.00319532
0 0.974866 0.0908936 0.00345753
0 0.97486 0.0908998 0.00437104
0 0.97485 0.0909033 0.00477726
0 0.974859 0.0909014 0.00456076
0 0.974872 0.090889 0.00272959
0 0.97478 0.187586 12.2893
0 0.974788 0.0909324 0.0106046
0 0.974806 0.0909299 0.00967902
0 0.974838 0.0909143 0.00673012
0 0.974824 0.0909271 0.00902978
0 0.974866 0.0908946 0.00367236
0 0.97486 0.0909005 0.00455556
0 0.97485 0.0909046 0.0050753
0 0.974859 0.0909001 0.00433766
0 0.974787 0.0909327 0.0106763
0 0.974779 0.187295 12.5144
0 0.974841 0.0909093 0.00573762
0 0.974828 0.0909262 0.00850293
0 0.974807 0.0909339 0.00973383
0 0.974824 0.0909289 0.00890047
0 0.974789 0.0909333 0.00997173
0 0.974807 0.0909335 0.00987896
0 0.974851 0.0909032 0.00465217
0 0.974872 0.0908892 0.0026823
0 0.974874 0.0908847 0.00213963
0 0.974867 0.0908932 0.00321317
0 0.974861 0.0908995 0.0041407
0 0.97486 0.0909014 0.00434387
0 0.974872 0.0908881 0.00229601
0 0.974875 0.0908814 0.00118668
0 0.974789 0.0909332 0.00995947
0 0.974779 0.188206 12.3251
0 0.97485 0.0909052 0.00509177
0 0.974806 0.0909305 0.00985015
0 0.974823 0.0909288 0.00938252
0 0.97484 0.0909147 0.00679035
0 0.974805 0.0909331 0.0101315
0 0.974866 0.0908944 0.00338878
0 0.974861 0.0908995 0.00412929
0 0.974872 0.0908896 0.00247466
0 0.974857 0.0909053 0.00503506
0 0.974786 0.0909332 0.00982086
0 0.974777 0.18722 12.2019
0 0.97484 0.0909091 0.00557247
0 0.974828 0.0909252 0.00833002
0 0.974807 0.0909339 0.00995559
0 0.974824 0.0909286 0.00899019
0 0.974807 0.0909346 0.0100344
0 0.97485 0.0909036 0.00462137
0 0.974875 0.0908815 0.000958131
0 0.974867 0.0908926 0.00287438
0 0.974861 0.0909004 0.00406592
0 0.974873 0.0908868 0.00177863
0 0.974875 0.0908818 0.000535721
0 0.974788 0.0909327 0.0100056
0 0.974779 0.187028 12.2507
0 0.974848 0.0909068 0.00525822
0 0.974824 0.0909258 0.00879315
0 0.974837 0.0909167 0.00707751
0 0.974805 0.0909348 0.0101905
0 0.974823 0.0909262 0.00874359
0 0.974868 0.0908928 0.00290216
0 0.974865 0.0908969 0.00351259
0 0.974872 0.0908889 0.00200853
0 0.97486 0.0909021 0.00435526
0 0.974851 0.0909088 0.00552131
0 0.974805 0.0909343 0.0101335
0 0.974787 0.090933 0.0098387
0 0.974777 0.186148 12.154
0 0.97484 0.0909092 0.00555744
0 0.974827 0.0909248 0.00828714
0 0.974806 0.0909343 0.00967232
0 0.974824 0.0909284 0.00879005
0 0.97485 0.0909044 0.00467619
0 0.97486 0.0909025 0.00431306
0 0.974873 0.0908866 0.00144098
0 0.974867 0.0908933 0.00276505
0 0.974872 0.0908889 0.00192571
0 0.974872 0.0908893 0.00185123
0 0.974872 0.0908899 0.00200499
0 0.974805 0.0909344 0.00943495
0 0.974785 0.0909326 0.00888999
0 0.974777 0.187269 12.2829
0 0.974838 0.0909124 0.00621053
0 0.974825 0.0909251 0.00843779
0 0.974822 0.09093 0.00925759
0 0.974848 0.0909086 0.00544493
0 0.974867 0.090893 0.00264092
0 0.974859 0.090902 0.00422779
0 0.974806 0.0909337 0.00996482
0 0.974788 0.0909333 0.0103588
0 0.974779 0.186699 11.9806
0 0.97484 0.0909089 0.00541801
0 0.974827 0.090925 0.00804027
0 0.974824 0.0909312 0.00899278
0 0.97485 0.0909043 0.00459285
0 0.974861 0.0909011 0.00401965
0 0.974868 0.0908943 0.00277261
0 0.974867 0.0908979 0.00337898
0 0.974867 0.0908949 0.00293591
0 0.974867 0.0908965 0.00318372
0 0.974805 0.090935 0.00965278
0 0.974785 0.0909311 0.00859024
0 0.974774 0.185829 11.9918
0 0.974838 0.0909125 0.00612894
0 0.974826 0.0909246 0.00816994
0 0.97485 0.0909055 0.00482597
0 0.974861 0.0908992 0.00366357
0 0.974825 0.0909274 0.0085412
0 0.974806 0.0909349 0.00987866
0 0.974787 0.0909334 0.00989974
0 0.974778 0.188242 12.5736
0 0.97484 0.090909 0.00534615
0 0.974827 0.0909268 0.008313
0 0.97485 0.0909039 0.00451398
0 0.974859 0.090903 0.0043422
0 0.97486 0.090901 0.00397696
0 0.97486 0.0909023 0.00424637
0 0.974861 0.0909021 0.00419399
0 0.974859 0.0909038 0.00451557
0 0.974825 0.0909297 0.00890583
0 0.974806 0.0909349 0.00980887
0 0.974787 0.0909306 0.00946623
0 0.974777 0.184925 12.071
0 0.97484 0.0909097 0.00555371
0 0.974851 0.0909031 0.00439585
0 0.974828 0.090925 0.0081054
0 0.974807 0.0909354 0.00987407
0 0.974787 0.0909335 0.00923983
0 0.974777 0.188259 12.2488
0 0.974841 0.0909092 0.00544308
0 0.974851 0.0909044 0.00464451
0 0.974852 0.0909024 0.00432026
0 0.974851 0.0909033 0.00453365
0 0.974851 0.0909039 0.004628
0 0.974829 0.0909256 0.00831702
0 0.974808 0.0909342 0.00973906
0 0.974788 0.0909318 0.00929238
0 0.974778 0.18614 12.1805
0 0.974841 0.0909102 0.00562083
0 0.974826 0.0909288 0.00878392
0 0.974808 0.0909336 0.00963829
0 0.974789 0.0909329 0.00968997
0 0.974778 0.186738 12.1637
0 0.974842 0.0909098 0.00567862
0 0.974842 0.0909093 0.00560815
0 0.974843 0.0909093 0.00569492
0 0.974827 0.0909292 0.00905481
0 0.97481 0.0909337 0.00982216
0 0.97479 0.0909321 0.00940052
0 0.974779 0.18691 12.2261
0 0.97483 0.0909256 0.00829177
0 0.974809 0.090933 0.00951046
0 0.97479 0.0909324 0.00962577
0 0.97478 0.186095 12.1511
0 0.974828 0.0909292 0.00915203
0 0.974831 0.0909258 0.00861394
0 0.974832 0.0909256 0.0087203
0 0.974829 0.0909293 0.00943423
0 0.974812 0.0909349 0.0100193
0 0.974794 0.0909321 0.00995427
0 0.974783 0.186248 12.2209
0 0.97481 0.090934 0.00973533
0 0.974791 0.0909324 0.00907918
0 0.97478 0.186607 12.1445
0 0.974813 0.0909341 0.0103546
0 0.974814 0.0909347 0.0103094
0 0.974815 0.0909341 0.0105607
0 0.974795 0.090932 0.00881945
0 0.974786 0.183948 11.7793
0 0.974794 0.0909323 0.00932139
0 0.974782 0.186576 12.0835
0 0.9748 0.0909324 0.0110941
0 0.974801 0.0909329 0.0106984
0 0.974788 0.184853 11.8037
0 0.974788 0.186654 12.3769
0 0.974797 0.186211 12.1269
VECTORS fa_u float
0.0114227 0.0047269 0
0.0109847 0.00637294 0
0.0121892 0.00324411 0
0.0123967 0.00164918 0
9.10367e-06 2.7692e-06 0
0.0097925 0.00751839 0
0.00899534 0.00895406 0
8.01609e-06 5.76823e-06 0
9.29349e-06 8.13164e-06 0
0.00754156 0.00981277 0
0.00623953 0.0108516 0
0.0120374 2.39769e-05 0
0.012447 -0.00165071 0
1.01942e-05 2.4408e-06 0
8.62681e-06 1.96965e-06 0
9.61927e-06 3.05456e-06 0
9.15767e-06 4.34541e-06 0
1.02018e-05 7.23135e-06 0
8.10516e-06 7.14693e-06 0
8.99352e-06 6.19681e-06 0
9.02209e-06 7.06058e-06 0
0.00483352 0.0116809 0
0.00331419 0.0122018 0
6.10179e-06 8.08799e-06 0
5.26477e-06 9.30207e-06 0
8.32423e-06 -1.24504e-06 0
0.0117927 -0.00318275 0
9.61024e-06 -2.80118e-06 0
0.0114195 -0.00469649 0
9.69038e-06 1.57928e-06 0
9.1801e-06 2.96168e-07 0
8.69469e-06 1.96335e-06 0
0.00160807 0.0124439 0
8.03278e-06 3.14854e-06 0
8.48367e-06 4.54075e-06 0
8.41898e-06 7.40213e-06 0
7.17661e-06 7.85977e-06 0
7.71618e-06 5.41803e-06 0
7.95724e-06 6.59016e-06 0
4.47324e-06 9.96944e-06 0
3.49673e-06 9.46668e-06 0
5.72345e-06 8.66143e-06 0
4.85997e-06 9.16928e-06 0
-3.46631e-05 0.0124895 0
9.56767e-06 -1.46666e-06 0
1.00239e-05 -3.38181e-06 0
1.00033e-05 -2.68158e-06 0
0.0105093 -0.00608376 0
9.06247e-06 -3.83803e-06 0
0.0101466 -0.00780924 0
8.3069e-06 6.77174e-07 0
8.78922e-06 -2.99039e-07 0
5.81717e-06 1.26783e-06 0
-5.62162e-07 1.01974e-05 0
-1.45421e-07 1.13713e-05 0
5.69947e-06 2.75676e-06 0
6.68036e-06 6.70919e-06 0
5.93182e-06 7.64451e-06 0
5.26704e-06 4.13695e-06 0
3.53545e-06 9.45332e-06 0
1.72741e-06 9.80228e-06 0
4.73336e-06 7.79054e-06 0
3.88216e-06 8.62895e-06 0
-0.00156325 0.0120696 0
8.25518e-06 -1.36444e-06 0
9.59329e-06 -3.9411e-06 0
8.74615e-06 -2.89798e-06 0
8.32818e-06 -6.64148e-06 0
8.94149e-06 -5.00929e-06 0
0.00857664 -0.00855553 0
8.84523e-06 -6.50382e-06 0
0.00743591 -0.00965131 0
4.92769e-06 1.57895e-06 0
5.85639e-06 -2.42074e-07 0
5.03366e-06 4.62942e-07 0
-1.62771e-07 1.0285e-05 0
-1.42807e-06 1.02233e-05 0
-9.99215e-07 1.04582e-05 0
4.58925e-06 2.70748e-06 0
4.51739e-06 1.95407e-06 0
4.28792e-06 4.99055e-06 0
4.09981e-06 3.66343e-06 0
2.25645e-06 8.06863e-06 0
8.05007e-07 8.71023e-06 0
2.84214e-06 5.68069e-06 0
-0.00317253 0.0118348 0
5.56345e-06 -1.68025e-06 0
7.84178e-06 -3.68563e-06 0
8.48376e-06 -6.27806e-06 0
7.96195e-06 -4.91889e-06 0
7.03981e-06 -7.01184e-06 0
7.79325e-06 -6.88314e-06 0
0.00608158 -0.0105481 0
5.99633e-06 -6.83062e-06 0
4.43632e-06 9.73787e-07 0
4.95752e-06 -8.34864e-07 0
4.66133e-06 -9.56869e-08 0
4.50125e-06 -1.92145e-06 0
0.00466841 -0.0113654 0
-2.8825e-06 9.72101e-06 0
-2.09139e-07 8.75314e-06 0
-2.29637e-06 9.6398e-06 0
-1.55503e-06 9.21286e-06 0
3.41359e-06 1.38677e-06 0
3.84422e-06 2.74589e-06 0
3.2033e-06 4.39304e-06 0
3.42495e-06 3.66691e-06 0
1.1565e-06 6.15271e-06 0
1.98664e-06 4.78412e-06 0
-0.00466862 0.0112583 0
5.00848e-06 -3.0026e-06 0
6.90678e-06 -5.47153e-06 0
6.4771e-06 -7.44823e-06 0
6.51658e-06 -6.74758e-06 0
3.52496e-06 -8.49044e-06 0
5.16554e-06 -8.1095e-06 0
3.28387e-06 -9.53506e-06 0
3.16767e-06 6.78056e-07 0
2.76967e-06 1.59342e-06 0
3.45722e-06 4.70117e-08 0
4.23761e-06 -1.07178e-06 0
3.78094e-06 -2.92005e-06 0
3.98133e-06 -2.22476e-06 0
2.71046e-06 -3.22606e-07 0
0.0031856 -0.0118692 0
-4.69801e-06 9.50719e-06 0
-3.3308e-06 9.08786e-06 0
-5.00729e-07 6.71147e-06 0
-2.52404e-06 8.66984e-06 0
2.62987e-06 2.56321e-06 0
2.27497e-06 3.94685e-06 0
6.10927e-07 5.0384e-06 0
1.19807e-06 4.16892e-06 0
-5.15088e-06 9.35153e-06 0
-0.00625696 0.010838 0
4.0233e-06 -4.09064e-06 0
5.05824e-06 -6.83477e-06 0
3.74274e-06 -8.98551e-06 0
4.17305e-06 -7.86155e-06 0
2.17338e-06 -9.732e-06 0
2.74032e-06 -9.49128e-06 0
2.80271e-06 -3.71315e-06 0
1.69501e-06 2.07886e-06 0
1.9876e-06 7.92133e-07 0
2.92294e-06 -1.33451e-06 0
3.03277e-06 -2.81916e-06 0
2.13559e-06 -3.78266e-06 0
1.88407e-06 -1.31222e-06 0
1.11574e-06 -4.04128e-07 0
7.92737e-07 -9.92787e-06 0
0.0016075 -0.0122198 0
-7.05662e-07 5.04264e-06 0
-4.44768e-06 8.78884e-06 0
-3.50133e-06 8.70473e-06 0
-1.8001e-06 6.5474e-06 0
-5.66587e-06 8.39916e-06 0
1.21949e-06 3.16175e-06 0
1.37113e-07 4.12702e-06 0
6.30832e-07 2.39291e-06 0
-1.2169e-06 4.88579e-06 0
-6.1919e-06 7.62297e-06 0
-0.00741082 0.00969358 0
2.63199e-06 -4.91173e-06 0
2.87179e-06 -7.81933e-06 0
1.4749e-06 -9.84573e-06 0
1.98308e-06 -8.76875e-06 0
3.65458e-07 -1.00278e-05 0
1.62419e-06 -4.32656e-06 0
3.90217e-07 8.75069e-07 0
1.61773e-06 -2.37593e-06 0
1.11089e-06 -3.91122e-06 0
6.93896e-07 -1.63769e-06 0
-2.85983e-07 -4.53002e-07 0
-2.30201e-07 -1.00029e-05 0
-3.88769e-06 -0.0122507 0
-2.2579e-06 4.74876e-06 0
-4.33434e-06 7.65069e-06 0
-3.33019e-06 6.24508e-06 0
-7.16931e-06 7.24206e-06 0
-5.47376e-06 6.81823e-06 0
-8.68449e-08 2.90086e-06 0
-9.3245e-07 3.38657e-06 0
-6.6789e-07 1.89423e-06 0
-2.22369e-06 3.7448e-06 0
-3.33198e-06 4.4026e-06 0
-7.7136e-06 6.5718e-06 0
-7.49347e-06 6.37557e-06 0
-0.00860673 0.00858158 0
1.25496e-06 -5.41389e-06 0
9.1314e-07 -8.23668e-06 0
-9.16876e-07 -9.62876e-06 0
-2.91962e-07 -8.7852e-06 0
4.80785e-07 -4.65141e-06 0
-1.2909e-07 -4.31112e-06 0
-1.18231e-06 8.23754e-07 0
8.35197e-08 -2.76379e-06 0
-4.36082e-07 -1.87568e-06 0
-1.83026e-06 -2.77828e-07 0
-1.44572e-06 -1.3892e-06 0
-2.37696e-06 -9.13063e-06 0
-7.45545e-07 -8.85867e-06 0
-0.0015639 -0.0121829 0
-3.90942e-06 4.82567e-06 0
-6.1531e-06 5.77371e-06 0
-7.33904e-06 5.64282e-06 0
-4.00454e-06 3.6893e-06 0
-1.7999e-06 1.93257e-06 0
-3.2229e-06 2.73627e-06 0
-8.28844e-06 5.53168e-06 0
-8.101e-06 6.45584e-06 0
-0.00951218 0.0072837 0
-1.87482e-07 -5.41476e-06 0
-1.32627e-06 -7.93013e-06 0
-2.92489e-06 -8.50383e-06 0
-8.75199e-07 -4.50869e-06 0
-1.21837e-06 -3.83056e-06 0
-2.61196e-06 9.30074e-07 0
-3.3688e-06 -2.62123e-07 0
-1.54743e-06 -2.495e-06 0
-2.79028e-06 -1.53311e-06 0
-3.8986e-06 -8.83046e-06 0
-3.46591e-06 -7.86001e-06 0
-0.00309434 -0.0115857 0
-4.87794e-06 3.71073e-06 0
-7.08775e-06 4.06345e-06 0
-4.24649e-06 2.29287e-06 0
-3.38698e-06 1.39647e-06 0
-8.01561e-06 2.94991e-06 0
-8.87843e-06 4.33145e-06 0
-8.44989e-06 5.15793e-06 0
-0.0108805 0.00630171 0
-1.6692e-06 -5.07889e-06 0
-3.59699e-06 -7.49451e-06 0
-2.03045e-06 -4.03154e-06 0
-2.42421e-06 -3.60249e-06 0
-3.95828e-06 3.85011e-07 0
-4.1637e-06 -8.33811e-07 0
-3.18794e-06 -2.72518e-06 0
-4.09679e-06 -1.89913e-06 0
-5.07845e-06 -7.31595e-06 0
-4.74094e-06 -8.58705e-06 0
-4.28325e-06 -8.44176e-06 0
-0.00463647 -0.011145 0
-5.17301e-06 2.0208e-06 0
-4.27244e-06 1.03429e-06 0
-7.96681e-06 1.49244e-06 0
-9.56898e-06 2.43554e-06 0
-8.6978e-06 3.11811e-06 0
-0.0113077 0.00470836 0
-3.16801e-06 -4.42615e-06 0
-3.18983e-06 -3.37586e-06 0
-4.31299e-06 -2.50655e-07 0
-4.30154e-06 -1.43203e-06 0
-3.91044e-06 -2.47524e-06 0
-5.6664e-06 -6.08809e-06 0
-6.15209e-06 -7.5499e-06 0
-5.00195e-06 -7.83128e-06 0
-0.00607744 -0.010556 0
-5.59947e-06 4.89512e-07 0
-8.76442e-06 5.84915e-07 0
-9.54295e-06 1.35234e-06 0
-9.54142e-06 1.69025e-06 0
-0.0117519 0.00313816 0