# vtk DataFile Version 2.0
CellBP Time: 0.68
ASCII
DATASET UNSTRUCTURED_GRID
POINTS 296 double
-9.16026 -3.76501 0
-8.58355 -4.93458 0
-9.57963 -2.53025 0
-9.83423 -1.25128 0
-8.35796 -2.81884 0
-7.85968 -6.01931 0
-6.99944 -6.99943 0
-7.91761 -3.8749 0
-7.34303 -4.86809 0
-6.01902 -7.85928 0
-4.93453 -8.58343 0
-9.91973 0.0500036 0
-9.83494 1.35137 0
-8.65808 -1.68402 0
-8.78672 -0.529648 0
-7.59009 -2.00424 0
-7.22613 -2.90663 0
-6.638 -5.77919 0
-5.82273 -6.59726 0
-6.79065 -3.88912 0
-6.22093 -4.67618 0
-3.76497 -9.16018 0
-2.5306 -9.58086 0
-4.90674 -7.30921 0
-3.91322 -7.88667 0
-8.79318 0.643429 0
-9.58005 2.63036 0
-8.6237 1.77416 0
-9.16079 3.86524 0
-7.7447 -0.929028 0
-7.79493 0.0802603 0
-6.95293 -1.31595 0
-1.2513 -9.83417 0
-6.44183 -2.15323 0
-6.31973 -3.05629 0
-5.53686 -5.47488 0
-4.79619 -6.11583 0
-5.65935 -3.75722 0
-5.2697 -4.56185 0
-2.86632 -8.36442 0
-1.77867 -8.64074 0
-3.92837 -6.72395 0
-3.05679 -7.15304 0
0.0500047 -9.91963 0
-7.70594 1.14358 0
-8.33903 2.91558 0
-7.55233 2.11209 0
-8.58417 5.03494 0
-7.88051 3.97846 0
-7.85971 6.11934 0
-6.77908 -0.396877 0
-6.95695 0.552577 0
-5.77171 -1.00346 0
-0.590871 -8.81024 0
0.565717 -8.77143 0
-5.30341 -2.4804 0
-4.49223 -5.09603 0
-3.90273 -5.77567 0
-4.43916 -3.80496 0
-2.06254 -7.56244 0
-1.13555 -7.78636 0
-2.99473 -6.10244 0
-2.30916 -6.62022 0
1.35134 -9.8347 0
-6.68987 1.42213 0
-7.17265 3.11832 0
-6.65968 2.37316 0
-7.2952 4.98898 0
-6.71854 4.00333 0
-6.99987 7.09987 0
-6.57294 5.89455 0
-6.01935 7.95972 0
-4.45333 -1.18112 0
-5.81493 0.513787 0
-4.6564 -0.0103798 0
0.00852152 -7.84865 0
1.73868 -8.64441 0
0.949033 -7.764 0
-4.03872 -2.40651 0
-3.48572 -1.39127 0
-3.2947 -4.80562 0
-3.26604 -3.26795 0
-1.37867 -6.67593 0
-0.508774 -7.02545 0
-1.97567 -5.53737 0
2.63039 -9.58016 0
-5.50768 2.03705 0
-6.09516 3.07243 0
-6.10557 4.87002 0
-5.76217 3.99179 0
-5.76176 6.71769 0
-5.45259 5.61984 0
-4.93505 8.68436 0
-4.83888 7.4052 0
-3.50167 -0.424322 0
-4.44955 1.24911 0
-3.71166 0.592107 0
-4.0624 2.31995 0
-3.7653 9.26095 0
2.86284 -8.33355 0
0.419724 -6.79598 0
2.0222 -7.5265 0
1.3062 -6.90616 0
-2.44478 -0.873853 0
-2.83852 -2.13124 0
-2.29453 -4.09761 0
-2.32577 -2.97376 0
-0.442411 -5.86159 0
-1.22279 -4.49941 0
3.86537 -9.16112 0
-4.79015 3.39205 0
-5.08838 4.59455 0
-4.64761 6.28204 0
-4.53929 5.36023 0
-3.8441 7.99414 0
-3.82712 6.8464 0
-2.78358 8.42368 0
-1.64912 -0.137903 0
-1.45032 -0.890627 0
-2.48924 0.507285 0
-3.2538 1.44424 0
-3.23924 3.31678 0
-2.91115 2.37191 0
-1.35516 0.627138 0
-2.53042 9.68023 0
3.93309 -7.88777 0
2.96485 -7.15847 0
0.954172 -5.82251 0
2.07454 -6.41615 0
-1.68305 -1.99216 0
-1.43451 -3.27797 0
0.0902298 -4.74732 0
-0.566205 -3.69465 0
4.93268 -7.31957 0
5.03485 -8.58401 0
-3.77727 4.55201 0
-3.73513 5.75272 0
-2.88829 7.29066 0
-3.01001 6.3544 0
-1.66273 8.73461 0
-1.94033 7.62021 0
-2.33854 4.05197 0
-0.730762 -1.32731 0
-0.836932 -0.257635 0
-1.9363 1.68087 0
-2.12589 2.87602 0
-1.30665 3.54493 0
-0.869498 1.35089 0
-0.282376 0.456069 0
-0.533575 8.87269 0
-1.25132 9.9345 0
1.11288 -4.57496 0
3.91059 -6.71808 0
2.98825 -6.09544 0
2.11807 -5.42548 0
4.78502 -6.20612 0
-0.55888 -2.47695 0
0.495145 -3.46406 0
0.053558 -1.61056 0
1.48201 -3.68243 0
5.8679 -6.6155 0
6.11933 -7.85967 0
-2.47591 5.349 0
-2.13069 6.5352 0
-0.90418 7.80427 0
-1.2725 6.93288 0
0.0862165 7.88138 0
-1.14455 4.49508 0
0.150329 -0.617674 0
-0.797468 2.48865 0
-0.331667 3.60098 0
0.063113 1.5128 0
0.741475 0.473444 0
0.646866 8.87538 0
0.0500035 10.0198 0
2.38123 -4.28564 0
3.85966 -5.64115 0
3.0018 -5.21335 0
5.57455 -5.4926 0
4.69166 -5.28377 0
0.629713 -2.29349 0
1.25626 -2.95143 0
0.757537 -1.39152 0
2.16452 -3.13608 0
2.99406 -3.47692 0
6.1561 -4.79252 0
6.65655 -5.77016 0
7.10081 -7.00081 0
-1.01974 5.821 0
-0.372664 6.88451 0
1.12279 7.77071 0
0.558054 7.0808 0
-0.000763003 4.72563 0
0.607054 3.82815 0
1.33899 -0.641931 0
0.539138 2.65123 0
0.966144 1.57503 0
1.91032 0.21388 0
1.61487 1.0651 0
2.12974 7.5848 0
1.79949 8.71377 0
1.35133 9.93471 0
3.8233 -4.35215 0
5.11735 -4.4497 0
5.84668 -3.93577 0
3.78443 -3.20142 0
1.81242 -1.88276 0
3.01946 -2.57415 0
6.78454 -3.94856 0
7.3827 -4.89764 0
7.9598 -6.01942 0
0.483421 5.88233 0
1.4284 6.74301 0
2.37475 6.67025 0
1.21012 4.55671 0
1.48833 3.39797 0
2.43601 -0.69208 0
2.82832 0.142616 0
1.78905 2.16304 0
2.61214 1.15026 0
3.0726 7.17147 0
2.90476 8.37838 0
2.63055 9.68072 0
4.91203 -3.32838 0
6.1218 -3.10924 0
4.17342 -2.27555 0
3.2448 -1.50307 0
6.73267 -2.31349 0
7.23353 -3.04315 0
7.9665 -3.91303 0
8.68404 -4.93486 0
2.02394 5.60072 0
3.08713 6.15485 0
2.36424 4.12748 0
2.42037 3.06126 0
3.52612 -0.460916 0
3.61617 0.613364 0
2.9622 2.28837 0
3.54607 1.52547 0
4.01313 5.89952 0
3.98548 6.79491 0
3.97431 7.9407 0
3.86557 9.26153 0
5.56988 -1.91651 0
4.50993 -1.12978 0
6.71558 -1.33642 0
7.59451 -2.03693 0
8.39935 -2.86209 0
9.26083 -3.76524 0
3.41984 4.87803 0
3.33956 3.38595 0
4.69207 0.130096 0
4.51996 1.3102 0
4.06605 2.44423 0
4.57192 5.15399 0
4.84522 6.19275 0
4.98197 7.38272 0
5.0358 8.68565 0
5.88489 -0.435001 0
7.01304 -0.488386 0
7.76201 -1.08562 0
8.68753 -1.74647 0
9.68039 -2.53045 0
4.55364 3.82858 0
5.81934 1.09888 0
5.37273 2.53563 0
5.38203 4.62226 0
5.61424 5.52558 0
5.89929 6.67428 0
6.11933 7.95973 0
6.84854 0.463696 0
7.85627 -0.0256479 0
8.86358 -0.58454 0
9.93501 -1.25137 0
6.96319 1.34996 0
5.72329 3.7799 0
6.54401 2.19834 0
6.38279 3.08923 0
6.29507 4.68893 0
6.69574 5.84014 0
7.10033 7.10029 0
7.78755 0.967999 0
8.86293 0.572968 0
10.0201 0.049998 0
7.61946 2.00514 0
6.83217 3.90597 0
7.27273 2.94807 0
7.3814 4.8878 0
7.96054 6.11994 0
8.72652 1.7276 0
9.9349 1.35136 0
8.42445 2.83893 0
7.98494 3.91792 0
8.68488 5.03534 0
9.67999 2.63033 0
9.26131 3.86544 0
CELLS 542 2168
3 2 0 4
3 0 1 7
3 4 0 7
3 1 5 8
3 7 1 8
3 3 2 13
3 13 2 4
3 11 3 14
3 14 3 13
3 13 4 15
3 4 7 16
3 15 4 16
3 5 6 17
3 8 5 17
3 6 9 18
3 17 6 18
3 7 8 19
3 16 7 19
3 8 17 20
3 19 8 20
3 9 10 23
3 18 9 23
3 10 21 24
3 23 10 24
3 12 11 25
3 25 11 14
3 26 12 27
3 27 12 25
3 14 13 29
3 29 13 15
3 25 14 30
3 30 14 29
3 29 15 31
3 15 16 33
3 31 15 33
3 16 19 34
3 33 16 34
3 17 18 35
3 20 17 35
3 18 23 36
3 35 18 36
3 19 20 37
3 34 19 37
3 20 35 38
3 37 20 38
3 21 22 39
3 24 21 39
3 22 32 40
3 39 22 40
3 23 24 41
3 36 23 41
3 24 39 42
3 41 24 42
3 27 25 44
3 44 25 30
3 28 26 45
3 45 26 27
3 45 27 46
3 46 27 44
3 47 28 48
3 48 28 45
3 30 29 50
3 50 29 31
3 44 30 51
3 51 30 50
3 50 31 52
3 31 33 52
3 32 43 53
3 40 32 53
3 53 43 54
3 33 34 55
3 34 37 55
3 33 55 52
3 35 36 56
3 38 35 56
3 36 41 57
3 56 36 57
3 37 38 58
3 38 56 58
3 37 58 55
3 39 40 59
3 42 39 59
3 40 53 60
3 59 40 60
3 41 42 61
3 57 41 61
3 42 59 62
3 61 42 62
3 43 63 54
3 46 44 64
3 64 44 51
3 48 45 65
3 65 45 46
3 65 46 66
3 66 46 64
3 49 47 67
3 67 47 48
3 67 48 68
3 68 48 65
3 69 49 70
3 70 49 67
3 52 55 72
3 64 51 73
3 51 50 73
3 50 52 73
3 73 52 74
3 74 52 72
3 53 54 75
3 60 53 75
3 54 63 76
3 54 76 77
3 75 54 77
3 55 58 78
3 72 55 78
3 72 78 79
3 56 57 80
3 57 61 80
3 56 80 58
3 58 80 81
3 78 58 81
3 59 60 82
3 62 59 82
3 60 75 83
3 82 60 83
3 61 62 84
3 62 82 84
3 61 84 80
3 63 85 76
3 66 64 86
3 64 73 86
3 68 65 87
3 87 65 66
3 87 66 86
3 70 67 88
3 88 67 68
3 88 68 89
3 89 68 87
3 71 69 90
3 90 69 70
3 90 70 91
3 91 70 88
3 92 71 93
3 93 71 90
3 74 72 94
3 94 72 79
3 86 73 95
3 95 73 74
3 95 74 96
3 96 74 94
3 97 86 95
3 76 85 99
3 75 77 100
3 83 75 100
3 76 99 101
3 77 76 101
3 77 101 102
3 100 77 102
3 94 79 103
3 78 81 104
3 79 78 104
3 79 104 103
3 80 84 105
3 81 80 105
3 81 105 106
3 104 81 106
3 82 83 107
3 83 100 107
3 82 107 84
3 84 107 108
3 105 84 108
3 85 109 99
3 89 87 110
3 87 86 110
3 110 86 97
3 91 88 111
3 111 88 89
3 111 89 110
3 93 90 112
3 112 90 91
3 112 91 113
3 113 91 111
3 98 92 114
3 114 92 93
3 114 93 115
3 115 93 112
3 116 98 114
3 117 103 118
3 96 94 119
3 94 103 119
3 119 103 117
3 97 95 120
3 120 95 96
3 120 96 119
3 121 110 97
3 121 97 122
3 122 97 120
3 123 119 117
3 124 98 116
3 99 109 125
3 99 125 126
3 101 99 126
3 100 102 127
3 100 127 107
3 101 126 128
3 102 101 128
3 102 128 127
3 104 106 129
3 104 129 103
3 103 129 118
3 105 108 130
3 106 105 130
3 106 130 129
3 107 127 131
3 108 107 131
3 108 131 132
3 108 132 130
3 109 134 125
3 125 134 133
3 113 111 135
3 111 110 135
3 135 110 121
3 115 112 136
3 136 112 113
3 136 113 135
3 116 114 137
3 137 114 115
3 137 115 138
3 138 115 136
3 139 124 116
3 139 116 140
3 140 116 137
3 141 135 121
3 118 129 142
3 118 142 143
3 117 118 143
3 123 117 143
3 122 120 144
3 120 119 144
3 144 119 123
3 141 121 145
3 145 121 122
3 145 122 144
3 146 141 145
3 147 144 123
3 147 123 148
3 143 148 123
3 150 124 139
3 149 150 139
3 131 127 151
3 125 133 152
3 126 125 152
3 126 152 153
3 128 126 153
3 128 153 154
3 128 154 127
3 127 154 151
3 152 133 155
3 130 132 156
3 130 156 129
3 129 156 142
3 131 151 157
3 132 131 157
3 132 157 156
3 156 158 142
3 157 151 159
3 133 160 155
3 134 161 133
3 133 161 160
3 138 136 162
3 136 135 162
3 162 135 141
3 140 137 163
3 163 137 138
3 163 138 162
3 149 139 164
3 164 139 140
3 164 140 165
3 165 140 163
3 166 149 164
3 167 162 141
3 167 141 146
3 142 158 168
3 143 142 168
3 143 168 148
3 146 145 169
3 145 144 169
3 169 144 147
3 170 167 146
3 170 146 169
3 171 169 147
3 171 147 148
3 171 148 172
3 168 172 148
3 173 149 166
3 174 150 149
3 173 174 149
3 154 175 151
3 151 175 159
3 152 155 176
3 153 152 176
3 153 176 177
3 153 177 154
3 154 177 175
3 155 160 178
3 155 178 179
3 176 155 179
3 156 157 180
3 156 180 158
3 157 159 181
3 157 181 180
3 158 180 182
3 158 182 168
3 159 175 183
3 159 183 181
3 175 184 183
3 160 186 178
3 178 186 185
3 161 187 160
3 160 187 186
3 165 163 188
3 163 162 188
3 188 162 167
3 166 164 189
3 189 164 165
3 189 165 188
3 190 173 166
3 190 166 191
3 191 166 189
3 192 188 167
3 192 167 170
3 193 192 170
3 182 194 168
3 194 172 168
3 193 170 195
3 170 169 195
3 195 169 171
3 196 195 171
3 196 171 172
3 194 197 172
3 197 198 172
3 198 196 172
3 200 173 190
3 199 200 190
3 201 174 173
3 200 201 173
3 176 179 202
3 177 176 202
3 177 202 175
3 175 202 184
3 178 185 203
3 178 203 179
3 179 203 202
3 203 185 204
3 202 205 184
3 183 206 181
3 180 181 206
3 180 206 182
3 182 206 194
3 183 184 207
3 205 207 184
3 183 207 206
3 185 208 204
3 186 209 185
3 185 209 208
3 187 210 186
3 186 210 209
3 191 189 211
3 189 188 211
3 211 188 192
3 199 190 212
3 212 190 191
3 212 191 211
3 213 199 212
3 214 211 192
3 214 192 193
3 215 214 193
3 215 193 195
3 206 216 194
3 216 197 194
3 216 217 197
3 215 195 218
3 218 195 196
3 198 218 196
3 217 219 197
3 219 218 198
3 197 219 198
3 220 199 213
3 221 200 199
3 220 221 199
3 222 201 200
3 221 222 200
3 203 204 223
3 203 223 202
3 202 223 205
3 204 208 224
3 204 224 223
3 205 223 225
3 205 225 207
3 207 225 226
3 207 226 206
3 226 216 206
3 208 228 224
3 224 228 227
3 209 229 208
3 229 228 208
3 210 230 209
3 209 230 229
3 213 212 231
3 212 211 231
3 231 211 214
3 232 220 213
3 232 213 231
3 233 231 214
3 233 214 215
3 234 233 215
3 234 215 218
3 226 235 216
3 235 217 216
3 235 236 217
3 217 236 219
3 237 234 218
3 237 218 219
3 236 238 219
3 238 237 219
3 240 220 232
3 239 240 232
3 241 221 220
3 240 241 220
3 242 222 221
3 241 242 221
3 224 227 243
3 224 243 223
3 223 243 225
3 225 243 244
3 225 244 226
3 226 244 235
3 227 245 243
3 228 246 227
3 227 246 245
3 229 247 228
3 228 247 246
3 230 248 229
3 229 248 247
3 239 232 249
3 232 231 249
3 249 231 233
3 250 249 233
3 250 233 234
3 237 250 234
3 244 251 235
3 235 251 236
3 251 252 236
3 236 252 238
3 252 253 238
3 253 250 237
3 253 237 238
3 254 239 249
3 255 240 239
3 254 255 239
3 256 241 240
3 255 256 240
3 257 242 241
3 256 257 241
3 245 258 243
3 243 258 244
3 244 258 251
3 245 259 258
3 246 260 245
3 245 260 259
3 247 261 246
3 246 261 260
3 248 262 247
3 247 262 261
3 254 249 263
3 263 249 250
3 253 263 250
3 258 264 251
3 251 264 252
3 264 265 252
3 265 263 253
3 252 265 253
3 266 254 263
3 267 255 254
3 266 267 254
3 268 256 255
3 267 268 255
3 269 257 256
3 268 269 256
3 259 270 258
3 270 264 258
3 260 271 259
3 259 271 270
3 261 272 260
3 260 272 271
3 262 273 261
3 273 272 261
3 270 274 264
3 275 266 263
3 275 263 265
3 274 276 264
3 276 265 264
3 276 277 265
3 277 275 265
3 278 267 266
3 275 278 266
3 279 268 267
3 278 279 267
3 280 269 268
3 279 280 268
3 271 281 270
3 270 281 274
3 272 282 271
3 271 282 281
3 273 283 272
3 272 283 282
3 281 284 274
3 274 284 276
3 285 278 275
3 277 285 275
3 284 286 276
3 286 285 277
3 276 286 277
3 287 279 278
3 285 287 278
3 288 280 279
3 287 288 279
3 282 289 281
3 281 289 284
3 283 290 282
3 282 290 289
3 289 291 284
3 284 291 286
3 291 292 286
3 292 287 285
3 286 292 285
3 293 288 287
3 292 293 287
3 290 294 289
3 289 294 291
3 294 295 291
3 295 293 292
3 291 295 292
CELL_TYPES 542
5
5
5
5
5
5
5
5
5
5
5
5
5
5
5
5
5
5
5
5
5
5
5
5
5
5
5
5
5
5
5
5
5
5
5
5
5
5
5
5
5
5
5
5
5
5
5
5
5
5
5
5
5
5
5
5
5
5
5
5
5
5
5
5
5
5
5
5
5
5
5
5
5
5
5
5
5
5
5
5
5
5
5
5
5
5
5
5
5
5
5
5
5
5
5
5
5
5
5
5
5
5
5
5
5
5
5
5
5
5
5
5
5
5
5
5
5
5
5
5
5
5
5
5
5
5
5
5
5
5
5
5
5
5
5
5
5
5
5
5
5
5
5
5
5
5
5
5
5
5
5
5
5
5
5
5
5
5
5
5
5
5
5
5
5
5
5
5
5
5
5
5
5
5
5
5
5
5
5
5
5
5
5
5
5
5
5
5
5
5
5
5
5
5
5
5
5
5
5
5
5
5
5
5
5
5
5
5
5
5
5
5
5
5
5
5
5
5
5
5
5
5
5
5
5
5
5
5
5
5
5
5
5
5
5
5
5
5
5
5
5
5
5
5
5
5
5
5
5
5
5
5
5
5
5
5
5
5
5
5
5
5
5
5
5
5
5
5
5
5
5
5
5
5
5
5
5
5
5
5
5
5
5
5
5
5
5
5
5
5
5
5
5
5
5
5
5
5
5
5
5
5
5
5
5
5
5
5
5
5
5
5
5
5
5
5
5
5
5
5
5
5
5
5
5
5
5
5
5
5
5
5
5
5
5
5
5
5
5
5
5
5
5
5
5
5
5
5
5
5
5
5
5
5
5
5
5
5
5
5
5
5
5
5
5
5
5
5
5
5
5
5
5
5
5
5
5
5
5
5
5
5
5
5
5
5
5
5
5
5
5
5
5
5
5
5
5
5
5
5
5
5
5
5
5
5
5
5
5
5
5
5
5
5
5
5
5
5
5
5
5
5
5
5
5
5
5
5
5
5
5
5
5
5
5
5
5
5
5
5
5
5
5
5
5
5
5
5
5
5
5
5
5
5
5
5
5
5
5
5
5
5
5
5
5
5
5
5
5
5
5
5
5
5
5
5
5
5
5
5
5
5
5
5
5
5
5
5
5
5
5
5
5
5
5
5
5
5
5
5
5
5
5
5
5
5
5
5
5
5
5
5
5
5
5
5
5
5
5
5
5
5
5
5
5
5
5
5
5
5
5
5
5
5
5
5
5
5
5
5
5
5
POINT_DATA 296
SCALARS concentrations float 4
LOOKUP_TABLE default
0 0.993958 0.129702 7.0055
0 0.993958 0.129603 7.0027
0 0.993958 0.129382 6.94727
0 0.993958 0.129071 6.89459
0 0.993967 0.0908808 0.0113787
0 0.993958 0.129143 6.3658
0 0.99396 0.129226 6.92855
0 0.993968 0.0908809 0.0104707
0 0.993967 0.0908819 0.00648057
0 0.993965 0.129184 6.89526
0 0.993969 0.129371 7.23492
0 0.993959 0.128722 6.84426
0 0.99396 0.128824 6.79914
0 0.993968 0.0908802 0.0115333
0 0.993968 0.0908789 0.0113799
0 0.993987 0.0908846 0.0119919
0 0.993987 0.0908845 0.0111893
0 0.993969 0.0908822 0.0085654
0 0.993971 0.0908812 0.013234
0 0.993988 0.0908849 0.00960533
0 0.993988 0.0908848 0.00926242
0 0.993964 0.129804 6.98317
0 0.99396 0.130145 7.01743
0 0.993975 0.0908826 0.019489
0 0.993975 0.090883 0.0205458
0 0.993968 0.090879 0.0115548
0 0.99396 0.128526 6.96552
0 0.993969 0.0908796 0.0141378
0 0.993959 0.128823 6.84494
0 0.993987 0.090884 0.0124023
0 0.993987 0.0908817 0.0123757
0 0.994005 0.0908766 0.0107095
0 0.99396 0.129216 6.91085
0 0.994008 0.0908739 0.00961306
0 0.994005 0.0908782 0.00962779
0 0.993989 0.0908849 0.0120787
0 0.993991 0.0908846 0.0160384
0 0.994009 0.0908751 0.00893137
0 0.994006 0.0908794 0.0105435
0 0.993971 0.0908823 0.014795
0 0.993969 0.0908836 0.0131968
0 0.993991 0.0908838 0.017892
0 0.99399 0.0908844 0.0174086
0 0.993958 0.128862 6.84154
0 0.993987 0.0908818 0.0136461
0 0.993968 0.0908805 0.0144164
0 0.993987 0.0908816 0.0143459
0 0.993958 0.128531 6.7962
0 0.993968 0.0908783 0.0117609
0 0.993958 0.128374 6.77241
0 0.994008 0.0908734 0.010533
0 0.994005 0.0908759 0.0116194
0 0.994021 0.0908583 0.00712331
0 0.993968 0.0908822 0.0127092
0 0.993965 0.0908803 0.0120632
0 0.994021 0.0908592 0.00685022
0 0.99401 0.0908759 0.0121937
0 0.994007 0.0908785 0.0150137
0 0.994021 0.0908603 0.00755289
0 0.993989 0.0908844 0.0152037
0 0.993988 0.090884 0.0139095
0 0.994009 0.0908761 0.0147221
0 0.994006 0.0908794 0.0149541
0 0.993956 0.128317 6.74947
0 0.994008 0.0908713 0.0111257
0 0.993987 0.0908823 0.0137554
0 0.994005 0.090875 0.0120902
0 0.993967 0.0908772 0.0110283
0 0.993987 0.0908814 0.0124826
0 0.993958 0.128297 6.76261
0 0.993967 0.0908768 0.0106238
0 0.99396 0.128318 6.77579
0 0.994031 0.0908527 0.00606162
0 0.994021 0.0908576 0.00742913
0 0.994031 0.0908524 0.00608854
0 0.993986 0.0908841 0.0129508
0 0.993964 0.0908792 0.0118432
0 0.993983 0.0908841 0.0124285
0 0.994031 0.0908532 0.00627053
0 0.99404 0.0908507 0.00586556
0 0.994022 0.0908604 0.00923674
0 0.994031 0.090854 0.00689606
0 0.994008 0.0908739 0.0123581
0 0.994003 0.0908759 0.0117215
0 0.994021 0.0908607 0.00956028
0 0.993954 0.128531 6.77477
0 0.99402 0.0908566 0.00730883
0 0.994008 0.0908721 0.0108044
0 0.993986 0.0908821 0.0120151
0 0.994004 0.090876 0.0110811
0 0.993968 0.0908769 0.0103721
0 0.993987 0.0908821 0.0117113
0 0.993961 0.128374 6.70457
0 0.993969 0.0908781 0.0109013
0 0.994041 0.0908487 0.00537884
0 0.994031 0.0908521 0.0060927
0 0.99404 0.0908495 0.00551032
0 0.994031 0.0908515 0.00577347
0 0.99396 0.128524 6.79682
0 0.993962 0.0908801 0.0113698
0 0.994004 0.0908754 0.0108772
0 0.993981 0.0908816 0.0111583
0 0.994 0.0908783 0.0105336
0 0.994047 0.0908439 0.00451494
0 0.994041 0.0908496 0.00590151
0 0.994031 0.0908544 0.00737498
0 0.99404 0.0908516 0.00658011
0 0.994019 0.0908611 0.00866041
0 0.99403 0.090854 0.00722932
0 0.993952 0.128318 6.71649
0 0.99402 0.090857 0.00690759
0 0.994007 0.0908734 0.0101304
0 0.993987 0.0908819 0.0116363
0 0.994004 0.0908775 0.0107583
0 0.99397 0.0908766 0.0107621
0 0.993988 0.0908811 0.0115105
0 0.993969 0.0908763 0.0097571
0 0.994051 0.0908412 0.00392539
0 0.994051 0.0908413 0.00399407
0 0.994047 0.0908427 0.00406166
0 0.994041 0.090848 0.00508745
0 0.99403 0.0908511 0.00538846
0 0.99404 0.0908492 0.00517133
0 0.994052 0.0908384 0.00312978
0 0.993961 0.128419 6.75804
0 0.993958 0.0908847 0.0103073
0 0.99398 0.0908801 0.00964493
0 0.994017 0.0908639 0.00799723
0 0.994 0.0908763 0.00906348
0 0.994047 0.0908443 0.00474388
0 0.99404 0.09085 0.00611088
0 0.99403 0.0908542 0.00656313
0 0.994039 0.0908496 0.00571248
0 0.993951 0.0908835 0.00741995
0 0.993945 0.128375 7.058
0 0.994021 0.0908571 0.00650138
0 0.994008 0.0908735 0.00980634
0 0.993988 0.0908806 0.0110626
0 0.994005 0.0908757 0.0101367
0 0.99397 0.0908791 0.0106474
0 0.993988 0.0908799 0.0107364
0 0.994031 0.0908506 0.00505644
0 0.994052 0.0908395 0.00341549
0 0.994054 0.0908358 0.00270729
0 0.994047 0.0908415 0.00354459
0 0.994041 0.0908472 0.0045086
0 0.99404 0.0908487 0.00463774
0 0.994052 0.0908363 0.00247608
0 0.994055 0.090832 0.0013977
0 0.99397 0.0908774 0.00939808
0 0.993962 0.128783 6.79952
0 0.994027 0.0908546 0.00558282
0 0.993976 0.0908791 0.00723274
0 0.993997 0.0908772 0.00775219
0 0.994016 0.0908637 0.00660574
0 0.993971 0.0908788 0.00355499
0 0.994046 0.0908442 0.00430792
0 0.99404 0.090849 0.004775
0 0.994051 0.0908398 0.00296824
0 0.994035 0.0908542 0.0046229
0 0.993944 0.090882 0.00174894
0 0.993935 0.128114 6.85893
0 0.994021 0.0908564 0.00611843
0 0.994008 0.0908715 0.00903068
0 0.993988 0.0908788 0.0104354
0 0.994005 0.0908741 0.00943417
0 0.993989 0.0908801 0.0105217
0 0.994031 0.0908508 0.00497629
0 0.994054 0.0908327 0.00115605
0 0.994047 0.0908404 0.00304571
0 0.994041 0.090848 0.00441218
0 0.994052 0.0908357 0.00202964
0 0.994054 0.090833 0.000870333
0 0.99397 0.0908826 0.00904513
0 0.99396 0.128092 7.07044
0 0.994024 0.0908552 0.00415666
0 0.993995 0.0908725 0.0047898
0 0.994011 0.0908645 0.00483343
0 0.99397 0.0908821 0.0047232
0 0.993992 0.0908724 0.00339771
0 0.994047 0.0908425 0.00318043
0 0.994043 0.0908462 0.00319006
0 0.994051 0.0908384 0.00181003
0 0.994037 0.0908506 0.00311014
0 0.994026 0.0908567 0.00353027
0 0.993973 0.0908827 0.00815676
0 0.993947 0.0908808 0.00841307
0 0.993932 0.127544 6.62047
0 0.994021 0.090856 0.00592815
0 0.994009 0.0908704 0.00866881
0 0.99399 0.0908832 0.0117318
0 0.994007 0.0908752 0.00981312
0 0.994031 0.0908522 0.0053194
0 0.99404 0.0908507 0.00502033
0 0.994051 0.0908362 0.00110432
0 0.994047 0.0908421 0.0032485
0 0.994052 0.0908385 0.00249568
0 0.994051 0.0908391 0.00236022
0 0.994051 0.0908396 0.00276487
0 0.993992 0.0908843 0.013021
0 0.993974 0.0908831 0.0130519
0 0.993963 0.128311 6.743
0 0.994011 0.0908597 0.00331584
0 0.993996 0.0908726 0.00508006
0 0.993994 0.090878 0.0079939
0 0.994022 0.0908568 0.00394536
0 0.994045 0.0908418 0.00198151
0 0.994035 0.0908505 0.00307634
0 0.993977 0.0908821 0.0104335
0 0.993955 0.0908784 0.0104671
0 0.993942 0.128155 6.74847
0 0.994021 0.090857 0.0062784
0 0.99401 0.0908734 0.0100012
0 0.994008 0.0908805 0.0119963
0 0.994031 0.0908532 0.00569419
0 0.994041 0.0908501 0.0050597
0 0.994046 0.0908433 0.00281886
0 0.994045 0.0908468 0.00417123
0 0.994047 0.0908443 0.00394247
0 0.994046 0.0908456 0.00431925
0 0.993992 0.0908856 0.013207
0 0.993976 0.0908807 0.0127558
0 0.993967 0.127894 6.54029
0 0.994012 0.0908608 0.00499505
0 0.994 0.0908727 0.0086246
0 0.994025 0.090854 0.00436759
0 0.994038 0.0908478 0.00358827
0 0.993999 0.0908752 0.0102304
0 0.99398 0.0908829 0.0118812
0 0.99396 0.0908778 0.0115286
0 0.99395 0.12874 6.84205
0 0.994023 0.0908585 0.0070467
0 0.994012 0.0908763 0.0111272
0 0.994032 0.0908534 0.00595253
0 0.99404 0.0908521 0.00575889
0 0.994038 0.0908496 0.00469144
0 0.994038 0.090851 0.00551378
0 0.994041 0.090851 0.00571846
0 0.994038 0.0908523 0.00608803
0 0.994011 0.0908792 0.011705
0 0.993994 0.0908849 0.0127546
0 0.993976 0.0908807 0.0107651
0 0.993968 0.12745 6.64825
0 0.994015 0.0908582 0.00612414
0 0.994027 0.0908517 0.0049063
0 0.994003 0.0908727 0.00998654
0 0.993982 0.090883 0.0125313
0 0.993963 0.0908771 0.0119012
0 0.993954 0.128753 6.83993
0 0.994023 0.090859 0.00740819
0 0.994032 0.0908536 0.00630694
0 0.994029 0.0908511 0.00552503
0 0.994029 0.0908518 0.00613801
0 0.994031 0.0908526 0.0063419
0 0.994014 0.090875 0.010863
0 0.993997 0.0908837 0.0125478
0 0.993979 0.090877 0.011135
0 0.993968 0.12784 6.76426
0 0.994017 0.0908584 0.00699046
0 0.994001 0.0908762 0.0109436
0 0.993983 0.0908811 0.0117405
0 0.993964 0.0908765 0.0117026
0 0.993956 0.128163 6.73892
0 0.994023 0.0908588 0.00773879
0 0.994019 0.0908575 0.00766723
0 0.994021 0.0908574 0.00795887
0 0.994011 0.0908782 0.0116779
0 0.993998 0.0908835 0.0121475
0 0.993985 0.0908772 0.0113318
0 0.993975 0.128245 6.78436
0 0.994005 0.090873 0.0109547
0 0.993984 0.0908806 0.011854
0 0.993965 0.0908776 0.00972565
0 0.993956 0.127897 6.67768
0 0.994004 0.0908761 0.0128166
0 0.994012 0.0908741 0.0115153
0 0.994009 0.0908726 0.0124019
0 0.994008 0.090877 0.0130599
0 0.993996 0.0908842 0.0127135
0 0.993983 0.0908814 0.00962317
0 0.99398 0.127879 6.28083
0 0.993986 0.0908821 0.0136188
0 0.993966 0.090882 0.0105826
0 0.993955 0.127992 6.80982
0 0.993989 0.0908805 0.0152192
0 0.993993 0.0908839 0.0138194
0 0.993991 0.0908822 0.0151991
0 0.993977 0.0908836 0.0116371
0 0.993972 0.126937 6.39718
0 0.99397 0.0908806 0.0150026
0 0.99396 0.128101 6.68265
0 0.993973 0.0908785 0.0154752
0 0.993975 0.0908824 0.0135886
0 0.993968 0.127478 6.51142
0 0.993964 0.128087 7.17803
0 0.993966 0.127904 6.72035
VECTORS fa_u float
0.00647357 0.00267768 0
0.00606865 0.00349417 0
0.00671095 0.00179659 0
0.00683569 0.000899296 0
1.09712e-05 3.0179e-06 0
0.00505486 0.00386934 0
0.00490264 0.00489581 0
1.0001e-05 3.10122e-06 0
6.41247e-06 9.37052e-07 0
0.00419697 0.00547084 0
0.00361874 0.00626488 0
0.00684426 -4.52021e-07 0
0.00674074 -0.000889204 0
1.13738e-05 1.91152e-06 0
1.13693e-05 4.90572e-07 0
1.16502e-05 2.84252e-06 0
1.05886e-05 3.61707e-06 0
2.61553e-07 8.56141e-06 0
3.29193e-06 1.2818e-05 0
8.51158e-06 4.45145e-06 0
6.10654e-06 6.96438e-06 0
0.00268327 0.00644707 0
0.00180918 0.0067802 0
5.00479e-06 1.88354e-05 0
1.34102e-05 1.55659e-05 0
1.14549e-05 -1.51637e-06 0
0.00672793 -0.00180371 0
1.337e-05 -4.59568e-06 0
0.00632442 -0.00261818 0
1.23568e-05 1.06184e-06 0
1.23724e-05 -2.82262e-07 0
1.05493e-05 1.84566e-06 0
0.000892913 0.00685292 0
9.106e-06 3.08085e-06 0
8.69126e-06 4.14202e-06 0
5.05237e-06 1.09713e-05 0
6.52973e-06 1.4649e-05 0
6.91198e-06 5.65632e-06 0
6.40177e-06 8.37752e-06 0
8.79216e-06 1.18991e-05 0
5.47793e-06 1.20061e-05 0
8.41878e-06 1.57876e-05 0
9.36412e-06 1.46756e-05 0
9.56314e-07 0.00684154 0
1.34625e-05 -2.23066e-06 0
1.4259e-05 -2.12493e-06 0
1.39926e-05 -3.16416e-06 0
0.00588672 -0.00339632 0
1.12081e-05 -3.56333e-06 0
0.00537464 -0.00412053 0
1.05216e-05 4.90092e-07 0
1.16013e-05 -6.48071e-07 0
6.97144e-06 1.46307e-06 0
3.80828e-06 1.21252e-05 0
2.25719e-06 1.18502e-05 0
6.08024e-06 3.15536e-06 0
6.31751e-06 1.04295e-05 0
7.29669e-06 1.31213e-05 0
5.19989e-06 5.47789e-06 0
7.20037e-06 1.33906e-05 0
4.92863e-06 1.30071e-05 0
7.37455e-06 1.27419e-05 0
7.19e-06 1.31122e-05 0
-0.000887744 0.00669083 0
1.10004e-05 -1.6651e-06 0
1.31238e-05 -4.12033e-06 0
1.16393e-05 -3.27078e-06 0
9.76877e-06 -5.11805e-06 0
1.14168e-05 -5.04702e-06 0
0.0047849 -0.00477887 0
8.55936e-06 -6.29304e-06 0
0.00412436 -0.00537597 0
5.69089e-06 2.08734e-06 0
7.42553e-06 -2.3101e-07 0
6.04513e-06 7.25698e-07 0
2.90154e-06 1.26216e-05 0
1.37629e-06 1.1763e-05 0
2.04983e-06 1.22583e-05 0
5.11446e-06 3.62793e-06 0
5.22148e-06 2.67225e-06 0
5.2444e-06 7.60352e-06 0
4.71458e-06 5.03272e-06 0
5.02613e-06 1.12899e-05 0
3.42295e-06 1.12106e-05 0
4.74783e-06 8.29801e-06 0
-0.00176018 0.00654211 0
7.09606e-06 -1.75068e-06 0
1.00487e-05 -3.96983e-06 0
1.0089e-05 -6.52485e-06 0
9.75064e-06 -5.26453e-06 0
7.23765e-06 -7.42949e-06 0
8.83702e-06 -7.68511e-06 0
0.00335679 -0.00580373 0
5.99118e-06 -9.10734e-06 0
5.18449e-06 1.43282e-06 0
6.0491e-06 -7.2757e-07 0
5.50846e-06 1.4326e-07 0
5.45216e-06 -1.8992e-06 0
0.00261142 -0.00627513 0
1.0606e-06 1.13202e-05 0
2.56955e-06 1.05694e-05 0
1.17012e-06 1.10968e-05 0
1.58795e-06 1.04132e-05 0
4.08336e-06 1.92635e-06 0
4.57987e-06 3.72191e-06 0
4.35376e-06 5.95274e-06 0
4.3855e-06 4.90563e-06 0
3.23485e-06 8.03358e-06 0
3.54632e-06 6.29974e-06 0
-0.0025787 0.00620174 0
6.13656e-06 -3.17133e-06 0
8.17114e-06 -5.98806e-06 0
7.47987e-06 -8.9137e-06 0
7.58058e-06 -7.63386e-06 0
6.03075e-06 -8.91363e-06 0
6.43568e-06 -9.54322e-06 0
3.6117e-06 -9.06403e-06 0
3.77112e-06 1.08966e-06 0
3.44497e-06 2.02109e-06 0
4.04332e-06 3.85574e-07 0
5.00202e-06 -9.28406e-07 0
4.44466e-06 -3.04639e-06 0
4.64781e-06 -2.26727e-06 0
3.12774e-06 -1.13096e-07 0
0.00174492 -0.00652888 0
1.89231e-06 1.01321e-05 0
1.24428e-06 9.56433e-06 0
2.00435e-06 7.74198e-06 0
1.01671e-06 9.00627e-06 0
3.46755e-06 3.23736e-06 0
3.47346e-06 5.02772e-06 0
2.4622e-06 6.08377e-06 0
2.53782e-06 5.1178e-06 0
4.25144e-06 6.08119e-06 0
-0.00352781 0.00611309 0
4.73386e-06 -4.45628e-06 0
5.99157e-06 -7.76308e-06 0
4.865e-06 -9.93543e-06 0
5.06331e-06 -8.78159e-06 0
1.46825e-06 -1.05456e-05 0
3.08721e-06 -1.0283e-05 0
3.13169e-06 -3.9699e-06 0
2.3869e-06 2.443e-06 0
2.48993e-06 1.06287e-06 0
3.31351e-06 -1.25886e-06 0
3.41203e-06 -2.94712e-06 0
2.23246e-06 -4.06506e-06 0
2.05192e-06 -1.38586e-06 0
1.31997e-06 -4.59611e-07 0
2.36677e-06 -9.09518e-06 0
0.000890393 -0.00674097 0
1.26475e-06 5.43768e-06 0
1.25095e-06 7.12374e-06 0
6.53921e-07 7.72456e-06 0
9.19568e-07 6.54142e-06 0
-4.06985e-07 3.53162e-06 0
2.20802e-06 3.69903e-06 0
1.53337e-06 4.5221e-06 0
1.37535e-06 2.63037e-06 0
4.03069e-07 4.60529e-06 0
-1.01276e-06 -1.42587e-06 0
-0.00416887 0.0054466 0
2.95172e-06 -5.35935e-06 0
3.31047e-06 -8.40202e-06 0
1.38423e-06 -1.03431e-05 0
1.97327e-06 -9.22549e-06 0
-7.92517e-07 -1.04918e-05 0
1.51012e-06 -4.74162e-06 0
7.7192e-07 8.6057e-07 0
1.61965e-06 -2.57935e-06 0
8.34129e-07 -4.33261e-06 0
5.9355e-07 -1.94091e-06 0
-3.40267e-07 -8.0106e-07 0
-3.4361e-06 -8.36706e-06 0
6.29579e-06 -0.00707044 0
-4.38951e-07 4.13342e-06 0
-4.49214e-07 4.76869e-06 0
-3.99702e-07 4.81687e-06 0
-4.66132e-06 7.62025e-07 0
-2.35716e-06 2.44708e-06 0
7.17327e-07 3.09848e-06 0
1.86549e-07 3.1846e-06 0
-1.39079e-07 1.80468e-06 0
-1.0882e-06 2.91356e-06 0
-2.0238e-06 2.89258e-06 0
-8.11308e-06 8.42986e-07 0
-8.06971e-06 -2.37897e-06 0
-0.00468786 0.00467488 0
9.66715e-07 -5.8488e-06 0
2.56629e-07 -8.66501e-06 0
-3.71224e-06 -1.1129e-05 0
-1.79867e-06 -9.64687e-06 0
-1.34147e-07 -5.31771e-06 0
-8.08286e-07 -4.95483e-06 0
-1.05127e-06 3.38169e-07 0
-3.68858e-07 -3.22749e-06 0
-8.3846e-07 -2.35061e-06 0
-2.15148e-06 -9.70451e-07 0
-1.93204e-06 -1.97781e-06 0
-4.95467e-06 -1.20415e-05 0
-6.2975e-06 -1.14321e-05 0
-0.000891416 -0.00668382 0
-2.21499e-06 2.46751e-06 0
-4.86949e-06 1.44743e-06 0
-7.82146e-06 1.65143e-06 0
-3.5275e-06 1.76709e-06 0
-1.41951e-06 1.38252e-06 0
-2.74408e-06 1.39065e-06 0
-1.027e-05 1.83976e-06 0
-1.03889e-05 1.27742e-06 0
-0.0053593 0.00410119 0
-1.19436e-06 -6.16375e-06 0
-3.17332e-06 -9.48436e-06 0
-4.94109e-06 -1.09315e-05 0
-1.89609e-06 -5.36923e-06 0
-2.12951e-06 -4.58974e-06 0
-2.81544e-06 1.38826e-07 0
-3.99417e-06 -1.20238e-06 0
-2.3189e-06 -3.18838e-06 0
-3.60436e-06 -2.38002e-06 0
-5.55953e-06 -1.19798e-05 0
-3.86713e-06 -1.21554e-05 0
-0.0016988 -0.00631581 0
-4.85127e-06 1.18985e-06 0
-8.46355e-06 1.65891e-06 0
-4.33249e-06 5.52545e-07 0
-3.57513e-06 3.06767e-07 0
-1.01245e-05 1.46865e-06 0
-1.16596e-05 2.28383e-06 0
-1.13275e-05 2.1441e-06 0
-0.00592373 0.00342389 0
-3.05892e-06 -6.34814e-06 0
-5.36702e-06 -9.74733e-06 0
-3.25069e-06 -4.98655e-06 0
-3.57645e-06 -4.51373e-06 0
-4.63435e-06 -7.29669e-07 0
-5.14611e-06 -1.97972e-06 0
-4.37385e-06 -3.68378e-06 0
-5.31211e-06 -2.97415e-06 0
-6.94913e-06 -9.41897e-06 0
-6.44799e-06 -1.10047e-05 0
-4.29728e-06 -9.87019e-06 0
-0.00253775 -0.00614484 0
-6.11163e-06 3.91289e-07 0
-4.88977e-06 -4.02369e-07 0
-9.98366e-06 2.39677e-07 0
-1.24498e-05 1.42683e-06 0
-1.17362e-05 1.97499e-06 0
-0.0063168 0.0026235 0
-4.66901e-06 -5.75166e-06 0
-4.53992e-06 -4.37797e-06 0
-5.30038e-06 -1.55948e-06 0
-5.54232e-06 -2.63778e-06 0
-5.27333e-06 -3.52302e-06 0
-7.53882e-06 -7.82117e-06 0
-8.02856e-06 -9.64307e-06 0
-6.98882e-06 -8.66859e-06 0
-0.00338926 -0.00585389 0
-6.92979e-06 -9.19035e-07 0
-1.09176e-05 -7.5456e-07 0
-1.17303e-05 4.89342e-07 0
-1.15981e-05 1.56035e-06 0
-0.0065076 0.00175049 0
-6.05844e-06 -4.815e-06 0
-7.22804e-06 -2.5577e-06 0