# vtk DataFile Version 2.0
CellBP Time: 1.04
ASCII
DATASET UNSTRUCTURED_GRID
POINTS 296 double
-9.14149 -3.75723 0
-8.56599 -4.92442 0
-9.56007 -2.525 0
-9.81423 -1.24865 0
-8.35793 -2.81882 0
-7.84313 -6.0066 0
-6.98515 -6.98515 0
-7.91757 -3.87488 0
-7.34299 -4.86806 0
-6.00653 -7.84301 0
-4.92452 -8.56606 0
-9.89967 0.0500045 0
-9.81497 1.34876 0
-8.65804 -1.68401 0
-8.78668 -0.529645 0
-7.59005 -2.00423 0
-7.22609 -2.90661 0
-6.63796 -5.77916 0
-5.8227 -6.59724 0
-6.79061 -3.8891 0
-6.22089 -4.67615 0
-3.75719 -9.14137 0
-2.52529 -9.56109 0
-4.90672 -7.30919 0
-3.91321 -7.88665 0
-8.79314 0.643427 0
-9.56063 2.62515 0
-8.62367 1.77416 0
-9.14224 3.85753 0
-7.74466 -0.929023 0
-7.79489 0.0802608 0
-6.95289 -1.31594 0
-1.24866 -9.81409 0
-6.44179 -2.15322 0
-6.3197 -3.05628 0
-5.53682 -5.47486 0
-4.79616 -6.1158 0
-5.65932 -3.7572 0
-5.26967 -4.56183 0
-2.86631 -8.36438 0
-1.77866 -8.6407 0
-3.92835 -6.72393 0
-3.05678 -7.15301 0
0.0500067 -9.8995 0
-7.7059 1.14357 0
-8.339 2.91557 0
-7.5523 2.11208 0
-8.5668 5.02492 0
-7.88048 3.97844 0
-7.84383 6.10715 0
-6.77905 -0.396876 0
-6.95691 0.552575 0
-5.77169 -1.00345 0
-0.590871 -8.8102 0
0.565712 -8.77139 0
-5.30339 -2.48039 0
-4.49221 -5.09601 0
-3.90271 -5.77564 0
-4.43914 -3.80494 0
-2.06253 -7.5624 0
-1.13555 -7.78632 0
-2.99471 -6.10242 0
-2.30915 -6.62019 0
1.34874 -9.81487 0
-6.68983 1.42213 0
-7.17261 3.1183 0
-6.65965 2.37315 0
-7.29517 4.98896 0
-6.7185 4.00331 0
-6.98572 7.08571 0
-6.57291 5.89453 0
-6.00715 7.94384 0
-4.45331 -1.18112 0
-5.81491 0.513785 0
-4.65638 -0.0103796 0
0.00851741 -7.84861 0
1.73867 -8.64437 0
0.949024 -7.76396 0
-4.0387 -2.4065 0
-3.4857 -1.39126 0
-3.29468 -4.8056 0
-3.26602 -3.26794 0
-1.37867 -6.67589 0
-0.508775 -7.02542 0
-1.97566 -5.53735 0
2.6252 -9.56077 0
-5.50765 2.03704 0
-6.09513 3.07241 0
-6.10554 4.86999 0
-5.76214 3.99177 0
-5.76174 6.71766 0
-5.45256 5.61982 0
-4.92514 8.66717 0
-4.83886 7.40518 0
-3.50166 -0.42432 0
-4.44953 1.24911 0
-3.71164 0.592105 0
-4.06239 2.31994 0
-3.75762 9.24239 0
2.86283 -8.33352 0
0.419718 -6.79595 0
2.02218 -7.52646 0
1.30619 -6.90613 0
-2.44477 -0.873849 0
-2.83851 -2.13123 0
-2.29453 -4.0976 0
-2.32576 -2.97375 0
-0.442411 -5.86157 0
-1.22279 -4.49939 0
3.8577 -9.14257 0
-4.79013 3.39204 0
-5.08836 4.59453 0
-4.64759 6.28201 0
-4.53927 5.36021 0
-3.84409 7.99411 0
-3.8271 6.84637 0
-2.78357 8.42365 0
-1.64911 -0.137901 0
-1.45032 -0.890621 0
-2.48923 0.507284 0
-3.25379 1.44423 0
-3.23922 3.31677 0
-2.91113 2.3719 0
-1.35516 0.627135 0
-2.52522 9.66087 0
3.93307 -7.88773 0
2.96483 -7.15844 0
0.954165 -5.82248 0
2.07453 -6.41611 0
-1.68305 -1.99215 0
-1.4345 -3.27795 0
0.0902274 -4.7473 0
-0.566204 -3.69463 0
4.93264 -7.31954 0
5.02498 -8.5669 0
-3.77725 4.55199 0
-3.73511 5.75269 0
-2.88827 7.29062 0
-3.01 6.35436 0
-1.66273 8.73457 0
-1.94032 7.62017 0
-2.33853 4.05195 0
-0.730759 -1.3273 0
-0.836927 -0.257633 0
-1.93629 1.68086 0
-2.12588 2.876 0
-1.30665 3.54491 0
-0.869493 1.35089 0
-0.282375 0.456066 0
-0.533575 8.87265 0
-1.24867 9.91449 0
1.11287 -4.57494 0
3.91056 -6.71805 0
2.98823 -6.0954 0
2.11805 -5.42545 0
4.78499 -6.20608 0
-0.558879 -2.47693 0
0.495141 -3.46404 0
0.0535565 -1.61055 0
1.482 -3.68241 0
5.86787 -6.61546 0
6.10724 -7.84393 0
-2.4759 5.34897 0
-2.13068 6.53517 0
-0.904175 7.80422 0
-1.27249 6.93284 0
0.0862168 7.88134 0
-1.14454 4.49506 0
0.150328 -0.617671 0
-0.797464 2.48864 0
-0.331664 3.60097 0
0.0631135 1.5128 0
0.741471 0.473442 0
0.646865 8.87534 0
0.0500077 10.0003 0
2.38121 -4.28562 0
3.85964 -5.64112 0
3.00178 -5.21332 0
5.57451 -5.49256 0
4.69163 -5.28374 0
0.629708 -2.29348 0
1.25626 -2.95142 0
0.757531 -1.39152 0
2.16451 -3.13606 0
2.99405 -3.47691 0
6.15606 -4.79248 0
6.65653 -5.77013 0
7.08674 -6.98672 0
-1.01974 5.82098 0
-0.372662 6.88447 0
1.12279 7.77067 0
0.558052 7.08077 0
-0.000762387 4.72561 0
0.607052 3.82813 0
1.33898 -0.641927 0
0.539136 2.65122 0
0.96614 1.57502 0
1.91031 0.213879 0
1.61486 1.06509 0
2.12973 7.58476 0
1.79949 8.71373 0
1.34875 9.91498 0
3.82328 -4.35213 0
5.11732 -4.44967 0
5.84664 -3.93574 0
3.78441 -3.20141 0
1.81241 -1.88275 0
3.01944 -2.57414 0
6.78451 -3.94853 0
7.38267 -4.89761 0
7.94391 -6.00724 0
0.48342 5.88231 0
1.4284 6.74298 0
2.37474 6.67021 0
1.21011 4.55669 0
1.48832 3.39796 0
2.436 -0.692076 0
2.82831 0.142616 0
1.78904 2.16303 0
2.61212 1.15025 0
3.07259 7.17144 0
2.90475 8.37835 0
2.62527 9.66093 0
4.912 -3.32837 0
6.12177 -3.10922 0
4.1734 -2.27554 0
3.24479 -1.50306 0
6.73264 -2.31347 0
7.23349 -3.04313 0
7.96647 -3.91301 0
8.66695 -4.925 0
2.02393 5.6007 0
3.08711 6.15482 0
2.36423 4.12746 0
2.42036 3.06124 0
3.5261 -0.460913 0
3.61615 0.613362 0
2.96219 2.28835 0
3.54605 1.52546 0
4.01311 5.89949 0
3.98546 6.79487 0
3.97429 7.94067 0
3.85808 9.2434 0
5.56986 -1.9165 0
4.50991 -1.12977 0
6.71555 -1.33642 0
7.59447 -2.03692 0
8.39931 -2.86208 0
9.24221 -3.75753 0
3.41983 4.87801 0
3.33955 3.38594 0
4.69205 0.130097 0
4.51995 1.31019 0
4.06603 2.44422 0
4.5719 5.15397 0
4.8452 6.19272 0
4.98195 7.38269 0
5.02596 8.66861 0
5.88487 -0.434996 0
7.013 -0.488381 0
7.76197 -1.08561 0
8.68749 -1.74646 0
9.66109 -2.52528 0
4.55362 3.82856 0
5.81931 1.09887 0
5.37271 2.53562 0
5.382 4.62224 0
5.61421 5.52556 0
5.89927 6.67425 0
6.10724 7.94398 0
6.8485 0.463697 0
7.85623 -0.0256448 0
8.86354 -0.584536 0
9.91523 -1.24878 0
6.96316 1.34996 0
5.72327 3.77989 0
6.54398 2.19833 0
6.38276 3.08922 0
6.29504 4.6889 0
6.69572 5.84012 0
7.08581 7.08578 0
7.78751 0.967998 0
8.86289 0.572972 0
10.0003 0.0500043 0
7.61943 2.00513 0
6.83214 3.90595 0
7.2727 2.94806 0
7.38137 4.88778 0
7.94487 6.10793 0
8.72649 1.7276 0
9.91522 1.34879 0
8.42442 2.83892 0
7.98491 3.91791 0
8.66764 5.0254 0
9.66116 2.62529 0
9.24295 3.85784 0
CELLS 542 2168
3 2 0 4
3 0 1 7
3 4 0 7
3 1 5 8
3 7 1 8
3 3 2 13
3 13 2 4
3 11 3 14
3 14 3 13
3 13 4 15
3 4 7 16
3 15 4 16
3 5 6 17
3 8 5 17
3 6 9 18
3 17 6 18
3 7 8 19
3 16 7 19
3 8 17 20
3 19 8 20
3 9 10 23
3 18 9 23
3 10 21 24
3 23 10 24
3 12 11 25
3 25 11 14
3 26 12 27
3 27 12 25
3 14 13 29
3 29 13 15
3 25 14 30
3 30 14 29
3 29 15 31
3 15 16 33
3 31 15 33
3 16 19 34
3 33 16 34
3 17 18 35
3 20 17 35
3 18 23 36
3 35 18 36
3 19 20 37
3 34 19 37
3 20 35 38
3 37 20 38
3 21 22 39
3 24 21 39
3 22 32 40
3 39 22 40
3 23 24 41
3 36 23 41
3 24 39 42
3 41 24 42
3 27 25 44
3 44 25 30
3 28 26 45
3 45 26 27
3 45 27 46
3 46 27 44
3 47 28 48
3 48 28 45
3 30 29 50
3 50 29 31
3 44 30 51
3 51 30 50
3 50 31 52
3 31 33 52
3 32 43 53
3 40 32 53
3 53 43 54
3 33 34 55
3 34 37 55
3 33 55 52
3 35 36 56
3 38 35 56
3 36 41 57
3 56 36 57
3 37 38 58
3 38 56 58
3 37 58 55
3 39 40 59
3 42 39 59
3 40 53 60
3 59 40 60
3 41 42 61
3 57 41 61
3 42 59 62
3 61 42 62
3 43 63 54
3 46 44 64
3 64 44 51
3 48 45 65
3 65 45 46
3 65 46 66
3 66 46 64
3 49 47 67
3 67 47 48
3 67 48 68
3 68 48 65
3 69 49 70
3 70 49 67
3 52 55 72
3 64 51 73
3 51 50 73
3 50 52 73
3 73 52 74
3 74 52 72
3 53 54 75
3 60 53 75
3 54 63 76
3 54 76 77
3 75 54 77
3 55 58 78
3 72 55 78
3 72 78 79
3 56 57 80
3 57 61 80
3 56 80 58
3 58 80 81
3 78 58 81
3 59 60 82
3 62 59 82
3 60 75 83
3 82 60 83
3 61 62 84
3 62 82 84
3 61 84 80
3 63 85 76
3 66 64 86
3 64 73 86
3 68 65 87
3 87 65 66
3 87 66 86
3 70 67 88
3 88 67 68
3 88 68 89
3 89 68 87
3 71 69 90
3 90 69 70
3 90 70 91
3 91 70 88
3 92 71 93
3 93 71 90
3 74 72 94
3 94 72 79
3 86 73 95
3 95 73 74
3 95 74 96
3 96 74 94
3 97 86 95
3 76 85 99
3 75 77 100
3 83 75 100
3 76 99 101
3 77 76 101
3 77 101 102
3 100 77 102
3 94 79 103
3 78 81 104
3 79 78 104
3 79 104 103
3 80 84 105
3 81 80 105
3 81 105 106
3 104 81 106
3 82 83 107
3 83 100 107
3 82 107 84
3 84 107 108
3 105 84 108
3 85 109 99
3 89 87 110
3 87 86 110
3 110 86 97
3 91 88 111
3 111 88 89
3 111 89 110
3 93 90 112
3 112 90 91
3 112 91 113
3 113 91 111
3 98 92 114
3 114 92 93
3 114 93 115
3 115 93 112
3 116 98 114
3 117 103 118
3 96 94 119
3 94 103 119
3 119 103 117
3 97 95 120
3 120 95 96
3 120 96 119
3 121 110 97
3 121 97 122
3 122 97 120
3 123 119 117
3 124 98 116
3 99 109 125
3 99 125 126
3 101 99 126
3 100 102 127
3 100 127 107
3 101 126 128
3 102 101 128
3 102 128 127
3 104 106 129
3 104 129 103
3 103 129 118
3 105 108 130
3 106 105 130
3 106 130 129
3 107 127 131
3 108 107 131
3 108 131 132
3 108 132 130
3 109 134 125
3 125 134 133
3 113 111 135
3 111 110 135
3 135 110 121
3 115 112 136
3 136 112 113
3 136 113 135
3 116 114 137
3 137 114 115
3 137 115 138
3 138 115 136
3 139 124 116
3 139 116 140
3 140 116 137
3 141 135 121
3 118 129 142
3 118 142 143
3 117 118 143
3 123 117 143
3 122 120 144
3 120 119 144
3 144 119 123
3 141 121 145
3 145 121 122
3 145 122 144
3 146 141 145
3 147 144 123
3 147 123 148
3 143 148 123
3 150 124 139
3 149 150 139
3 131 127 151
3 125 133 152
3 126 125 152
3 126 152 153
3 128 126 153
3 128 153 154
3 128 154 127
3 127 154 151
3 152 133 155
3 130 132 156
3 130 156 129
3 129 156 142
3 131 151 157
3 132 131 157
3 132 157 156
3 156 158 142
3 157 151 159
3 133 160 155
3 134 161 133
3 133 161 160
3 138 136 162
3 136 135 162
3 162 135 141
3 140 137 163
3 163 137 138
3 163 138 162
3 149 139 164
3 164 139 140
3 164 140 165
3 165 140 163
3 166 149 164
3 167 162 141
3 167 141 146
3 142 158 168
3 143 142 168
3 143 168 148
3 146 145 169
3 145 144 169
3 169 144 147
3 170 167 146
3 170 146 169
3 171 169 147
3 171 147 148
3 171 148 172
3 168 172 148
3 173 149 166
3 174 150 149
3 173 174 149
3 154 175 151
3 151 175 159
3 152 155 176
3 153 152 176
3 153 176 177
3 153 177 154
3 154 177 175
3 155 160 178
3 155 178 179
3 176 155 179
3 156 157 180
3 156 180 158
3 157 159 181
3 157 181 180
3 158 180 182
3 158 182 168
3 159 175 183
3 159 183 181
3 175 184 183
3 160 186 178
3 178 186 185
3 161 187 160
3 160 187 186
3 165 163 188
3 163 162 188
3 188 162 167
3 166 164 189
3 189 164 165
3 189 165 188
3 190 173 166
3 190 166 191
3 191 166 189
3 192 188 167
3 192 167 170
3 193 192 170
3 182 194 168
3 194 172 168
3 193 170 195
3 170 169 195
3 195 169 171
3 196 195 171
3 196 171 172
3 194 197 172
3 197 198 172
3 198 196 172
3 200 173 190
3 199 200 190
3 201 174 173
3 200 201 173
3 176 179 202
3 177 176 202
3 177 202 175
3 175 202 184
3 178 185 203
3 178 203 179
3 179 203 202
3 203 185 204
3 202 205 184
3 183 206 181
3 180 181 206
3 180 206 182
3 182 206 194
3 183 184 207
3 205 207 184
3 183 207 206
3 185 208 204
3 186 209 185
3 185 209 208
3 187 210 186
3 186 210 209
3 191 189 211
3 189 188 211
3 211 188 192
3 199 190 212
3 212 190 191
3 212 191 211
3 213 199 212
3 214 211 192
3 214 192 193
3 215 214 193
3 215 193 195
3 206 216 194
3 216 197 194
3 216 217 197
3 215 195 218
3 218 195 196
3 198 218 196
3 217 219 197
3 219 218 198
3 197 219 198
3 220 199 213
3 221 200 199
3 220 221 199
3 222 201 200
3 221 222 200
3 203 204 223
3 203 223 202
3 202 223 205
3 204 208 224
3 204 224 223
3 205 223 225
3 205 225 207
3 207 225 226
3 207 226 206
3 226 216 206
3 208 228 224
3 224 228 227
3 209 229 208
3 229 228 208
3 210 230 209
3 209 230 229
3 213 212 231
3 212 211 231
3 231 211 214
3 232 220 213
3 232 213 231
3 233 231 214
3 233 214 215
3 234 233 215
3 234 215 218
3 226 235 216
3 235 217 216
3 235 236 217
3 217 236 219
3 237 234 218
3 237 218 219
3 236 238 219
3 238 237 219
3 240 220 232
3 239 240 232
3 241 221 220
3 240 241 220
3 242 222 221
3 241 242 221
3 224 227 243
3 224 243 223
3 223 243 225
3 225 243 244
3 225 244 226
3 226 244 235
3 227 245 243
3 228 246 227
3 227 246 245
3 229 247 228
3 228 247 246
3 230 248 229
3 229 248 247
3 239 232 249
3 232 231 249
3 249 231 233
3 250 249 233
3 250 233 234
3 237 250 234
3 244 251 235
3 235 251 236
3 251 252 236
3 236 252 238
3 252 253 238
3 253 250 237
3 253 237 238
3 254 239 249
3 255 240 239
3 254 255 239
3 256 241 240
3 255 256 240
3 257 242 241
3 256 257 241
3 245 258 243
3 243 258 244
3 244 258 251
3 245 259 258
3 246 260 245
3 245 260 259
3 247 261 246
3 246 261 260
3 248 262 247
3 247 262 261
3 254 249 263
3 263 249 250
3 253 263 250
3 258 264 251
3 251 264 252
3 264 265 252
3 265 263 253
3 252 265 253
3 266 254 263
3 267 255 254
3 266 267 254
3 268 256 255
3 267 268 255
3 269 257 256
3 268 269 256
3 259 270 258
3 270 264 258
3 260 271 259
3 259 271 270
3 261 272 260
3 260 272 271
3 262 273 261
3 273 272 261
3 270 274 264
3 275 266 263
3 275 263 265
3 274 276 264
3 276 265 264
3 276 277 265
3 277 275 265
3 278 267 266
3 275 278 266
3 279 268 267
3 278 279 267
3 280 269 268
3 279 280 268
3 271 281 270
3 270 281 274
3 272 282 271
3 271 282 281
3 273 283 272
3 272 283 282
3 281 284 274
3 274 284 276
3 285 278 275
3 277 285 275
3 284 286 276
3 286 285 277
3 276 286 277
3 287 279 278
3 285 287 278
3 288 280 279
3 287 288 279
3 282 289 281
3 281 289 284
3 283 290 282
3 282 290 289
3 289 291 284
3 284 291 286
3 291 292 286
3 292 287 285
3 286 292 285
3 293 288 287
3 292 293 287
3 290 294 289
3 289 294 291
3 294 295 291
3 295 293 292
3 291 295 292
CELL_TYPES 542
5
5
5
5
5
5
5
5
5
5
5
5
5
5
5
5
5
5
5
5
5
5
5
5
5
5
5
5
5
5
5
5
5
5
5
5
5
5
5
5
5
5
5
5
5
5
5
5
5
5
5
5
5
5
5
5
5
5
5
5
5
5
5
5
5
5
5
5
5
5
5
5
5
5
5
5
5
5
5
5
5
5
5
5
5
5
5
5
5
5
5
5
5
5
5
5
5
5
5
5
5
5
5
5
5
5
5
5
5
5
5
5
5
5
5
5
5
5
5
5
5
5
5
5
5
5
5
5
5
5
5
5
5
5
5
5
5
5
5
5
5
5
5
5
5
5
5
5
5
5
5
5
5
5
5
5
5
5
5
5
5
5
5
5
5
5
5
5
5
5
5
5
5
5
5
5
5
5
5
5
5
5
5
5
5
5
5
5
5
5
5
5
5
5
5
5
5
5
5
5
5
5
5
5
5
5
5
5
5
5
5
5
5
5
5
5
5
5
5
5
5
5
5
5
5
5
5
5
5
5
5
5
5
5
5
5
5
5
5
5
5
5
5
5
5
5
5
5
5
5
5
5
5
5
5
5
5
5
5
5
5
5
5
5
5
5
5
5
5
5
5
5
5
5
5
5
5
5
5
5
5
5
5
5
5
5
5
5
5
5
5
5
5
5
5
5
5
5
5
5
5
5
5
5
5
5
5
5
5
5
5
5
5
5
5
5
5
5
5
5
5
5
5
5
5
5
5
5
5
5
5
5
5
5
5
5
5
5
5
5
5
5
5
5
5
5
5
5
5
5
5
5
5
5
5
5
5
5
5
5
5
5
5
5
5
5
5
5
5
5
5
5
5
5
5
5
5
5
5
5
5
5
5
5
5
5
5
5
5
5
5
5
5
5
5
5
5
5
5
5
5
5
5
5
5
5
5
5
5
5
5
5
5
5
5
5
5
5
5
5
5
5
5
5
5
5
5
5
5
5
5
5
5
5
5
5
5
5
5
5
5
5
5
5
5
5
5
5
5
5
5
5
5
5
5
5
5
5
5
5
5
5
5
5
5
5
5
5
5
5
5
5
5
5
5
5
5
5
5
5
5
5
5
5
5
5
5
5
5
5
5
5
5
5
5
5
5
5
5
5
5
5
5
5
5
5
5
5
5
5
5
5
5
5
5
5
5
5
5
5
5
5
5
5
5
5
5
5
5
5
5
5
5
5
5
5
5
5
5
5
5
5
POINT_DATA 296
SCALARS concentrations float 4
LOOKUP_TABLE default
0 0.989951 0.148354 9.21674
0 0.98995 0.148192 9.20352
0 0.989954 0.147902 9.15494
0 0.989956 0.147453 9.08899
0 0.989963 0.0909371 0.011531
0 0.989948 0.148014 9.14113
0 0.989938 0.147661 9.11303
0 0.989961 0.0909368 0.0115531
0 0.98996 0.0909374 0.013476
0 0.989927 0.147168 9.45751
0 0.989932 0.147747 9.26556
0 0.989956 0.146957 9.00909
0 0.989954 0.147099 9.01691
0 0.989965 0.0909367 0.0116104
0 0.989966 0.0909355 0.0114808
0 0.989986 0.0909403 0.0122412
0 0.989984 0.0909396 0.0122243
0 0.989955 0.0909364 0.0135493
0 0.989945 0.0909343 0.0118404
0 0.989983 0.0909395 0.0128081
0 0.98998 0.0909387 0.0130223
0 0.989941 0.148555 9.20301
0 0.989947 0.149066 9.26773
0 0.989943 0.0909334 0.0107816
0 0.989949 0.0909349 0.00992378
0 0.989966 0.0909359 0.0114577
0 0.989951 0.1465 9.23718
0 0.989963 0.090938 0.0099891
0 0.989956 0.147109 9.00603
0 0.989987 0.0909404 0.0122237
0 0.989988 0.0909386 0.0117686
0 0.990007 0.0909319 0.0106074
0 0.989951 0.147573 9.17081
0 0.990009 0.0909282 0.0100216
0 0.990004 0.0909324 0.0110627
0 0.989975 0.090938 0.0126276
0 0.989972 0.0909374 0.0116501
0 0.990006 0.0909285 0.0104936
0 0.989999 0.0909327 0.0113297
0 0.989956 0.0909371 0.0112176
0 0.98996 0.0909383 0.0117439
0 0.989973 0.0909373 0.0110422
0 0.989976 0.0909383 0.0110192
0 0.989954 0.147152 9.03887
0 0.989987 0.0909403 0.011474
0 0.989964 0.090938 0.00995918
0 0.989987 0.0909409 0.011329
0 0.98996 0.146669 8.98337
0 0.989968 0.0909355 0.0113832
0 0.989962 0.14643 8.96657
0 0.99001 0.0909292 0.0099717
0 0.990007 0.0909329 0.0104457
0 0.990024 0.0909117 0.00675553
0 0.989963 0.0909371 0.011562
0 0.989965 0.0909356 0.0111478
0 0.990023 0.090912 0.00697402
0 0.990002 0.0909288 0.0100888
0 0.989997 0.0909318 0.0101518
0 0.99002 0.0909127 0.00710409
0 0.989981 0.090939 0.0114707
0 0.989984 0.0909392 0.0116717
0 0.990002 0.0909297 0.00951941
0 0.990001 0.0909335 0.0102179
0 0.989957 0.146335 8.94965
0 0.990012 0.0909285 0.00944594
0 0.989988 0.0909405 0.0115346
0 0.990009 0.0909329 0.0101862
0 0.989971 0.090934 0.011343
0 0.989991 0.0909387 0.0117864
0 0.989963 0.14632 8.96559
0 0.989972 0.0909333 0.0111187
0 0.989963 0.146368 8.9863
0 0.990035 0.0909053 0.00552136
0 0.990026 0.0909119 0.00664884
0 0.990037 0.0909054 0.00548758
0 0.989987 0.0909391 0.011741
0 0.989968 0.090934 0.0108865
0 0.989988 0.0909389 0.0117182
0 0.990034 0.0909054 0.00554632
0 0.990046 0.0909027 0.00494539
0 0.99002 0.0909127 0.00672773
0 0.990033 0.090906 0.00558602
0 0.990007 0.0909279 0.0093636
0 0.990005 0.0909304 0.00999305
0 0.990022 0.0909132 0.00662494
0 0.989959 0.146625 9.00366
0 0.990027 0.0909112 0.00648809
0 0.990013 0.0909289 0.00973738
0 0.989992 0.090939 0.0119917
0 0.990011 0.0909327 0.0106572
0 0.989973 0.0909331 0.0108513
0 0.989993 0.0909387 0.0118132
0 0.989962 0.146275 8.76175
0 0.989972 0.0909332 0.00972506
0 0.990049 0.0909008 0.00459807
0 0.990038 0.0909056 0.00551988
0 0.990048 0.0909022 0.00487484
0 0.990039 0.090905 0.00546245
0 0.989964 0.146677 9.01935
0 0.989969 0.0909332 0.0108201
0 0.99001 0.0909296 0.00990242
0 0.989989 0.0909359 0.0112211
0 0.990008 0.0909327 0.0105818
0 0.990056 0.0908951 0.00343897
0 0.990047 0.0909012 0.00460393
0 0.990034 0.0909063 0.00548864
0 0.990046 0.0909033 0.00491881
0 0.990024 0.0909138 0.00685998
0 0.990036 0.0909058 0.00534511
0 0.989959 0.146305 8.9804
0 0.990028 0.0909113 0.0066628
0 0.990015 0.0909295 0.0100728
0 0.989993 0.0909384 0.0113674
0 0.990012 0.0909339 0.0107795
0 0.989973 0.090934 0.0100491
0 0.989994 0.090938 0.0111586
0 0.989974 0.0909337 0.0111965
0 0.990062 0.0908919 0.00278115
0 0.990062 0.0908917 0.00269805
0 0.990057 0.0908942 0.0033477
0 0.990051 0.0909008 0.00464549
0 0.99004 0.0909047 0.00548779
0 0.99005 0.0909026 0.00504235
0 0.990065 0.0908891 0.00239587
0 0.989965 0.146528 8.96534
0 0.98997 0.0909335 0.010478
0 0.989992 0.0909342 0.0109058
0 0.990026 0.0909168 0.00756673
0 0.990012 0.0909309 0.010334
0 0.990056 0.0908951 0.00338272
0 0.990048 0.0909014 0.00453328
0 0.990039 0.0909061 0.00551745
0 0.990049 0.0909011 0.00452581
0 0.989971 0.090935 0.0108856
0 0.989959 0.146305 9.00494
0 0.99003 0.0909113 0.00670032
0 0.990016 0.0909296 0.00988615
0 0.989994 0.0909382 0.0115112
0 0.990013 0.0909326 0.0104694
0 0.989974 0.0909341 0.011539
0 0.989995 0.0909379 0.0119349
0 0.990041 0.0909045 0.00558171
0 0.990064 0.0908894 0.00227165
0 0.990067 0.090885 0.0013323
0 0.990059 0.0908936 0.00338683
0 0.990053 0.0909006 0.00477134
0 0.990052 0.0909026 0.00529217
0 0.990065 0.090888 0.00240695
0 0.990069 0.0908805 0.000915781
0 0.989973 0.0909343 0.0111355
0 0.989964 0.146896 9.105
0 0.99004 0.090907 0.00589483
0 0.989993 0.0909354 0.0112515
0 0.990012 0.0909331 0.0108385
0 0.99003 0.0909175 0.00787666
0 0.989993 0.0909384 0.0123363
0 0.990058 0.0908949 0.00339631
0 0.990052 0.0909006 0.00461438
0 0.990065 0.0908897 0.00251573
0 0.99005 0.0909071 0.00607519
0 0.989974 0.0909351 0.0119609
0 0.989962 0.146305 8.87711
0 0.990031 0.090911 0.00674829
0 0.990017 0.0909286 0.0100244
0 0.989994 0.0909385 0.0121907
0 0.990013 0.0909325 0.0109939
0 0.989994 0.0909395 0.0124603
0 0.990042 0.090905 0.00583589
0 0.990069 0.0908806 0.000927675
0 0.99006 0.090893 0.00347412
0 0.990054 0.0909014 0.00520426
0 0.990066 0.0908865 0.0022957
0 0.990069 0.0908815 0.0013999
0 0.989973 0.0909348 0.0111389
0 0.989963 0.146151 8.76668
0 0.990041 0.0909088 0.00661636
0 0.990014 0.0909301 0.0106234
0 0.990029 0.0909199 0.00866908
0 0.989995 0.09094 0.0134364
0 0.990014 0.0909305 0.0112768
0 0.990061 0.0908933 0.00332883
0 0.990058 0.0908979 0.00438248
0 0.990067 0.0908888 0.00272919
0 0.990054 0.0909036 0.0056833
0 0.990045 0.0909109 0.00730801
0 0.989996 0.0909397 0.0141223
0 0.989975 0.0909342 0.0120654
0 0.989965 0.145763 8.77159
0 0.990031 0.0909112 0.00704106
0 0.990017 0.0909284 0.0103883
0 0.989994 0.0909392 0.0128772
0 0.990014 0.0909324 0.0113864
0 0.990042 0.0909058 0.0061469
0 0.990052 0.0909036 0.0057557
0 0.990068 0.0908863 0.00241117
0 0.990061 0.0908936 0.00376212
0 0.990066 0.0908888 0.00281338
0 0.990067 0.0908893 0.00291874
0 0.990066 0.09089 0.00303154
0 0.989995 0.0909383 0.0131434
0 0.989974 0.0909367 0.0125181
0 0.989964 0.14635 8.83483
0 0.990031 0.090915 0.00817763
0 0.990018 0.0909292 0.0116086
0 0.990015 0.0909345 0.0131956
0 0.990041 0.0909107 0.00737913
0 0.990061 0.0908933 0.00376875
0 0.990053 0.0909033 0.00586487
0 0.989997 0.0909389 0.0143914
0 0.989978 0.090936 0.0139707
0 0.989967 0.14599 9.02246
0 0.990031 0.0909108 0.00719718
0 0.990017 0.0909283 0.0108577
0 0.990014 0.0909349 0.0122577
0 0.990042 0.0909056 0.00619045
0 0.990054 0.090902 0.00548058
0 0.990063 0.0908946 0.00399516
0 0.990061 0.0908985 0.00461405
0 0.990061 0.0908954 0.00408336
0 0.990061 0.0908971 0.00429888
0 0.989994 0.0909396 0.0130523
0 0.989975 0.0909347 0.0119834
0 0.989965 0.145545 9.35375
0 0.990031 0.090915 0.00861974
0 0.990019 0.0909283 0.0117511
0 0.990044 0.0909071 0.00668182
0 0.990055 0.0909 0.00511443
0 0.990016 0.0909311 0.0117497
0 0.989997 0.0909401 0.0141978
0 0.989978 0.0909379 0.0147552
0 0.989969 0.146892 8.68674
0 0.990032 0.0909107 0.00727403
0 0.990018 0.0909301 0.0111963
0 0.990042 0.0909051 0.00604688
0 0.990052 0.0909041 0.00581337
0 0.990054 0.0909019 0.00527186
0 0.990054 0.0909033 0.00539988
0 0.990054 0.0909031 0.00547285
0 0.990052 0.0909049 0.00568343
0 0.990015 0.0909332 0.0118327
0 0.989996 0.0909394 0.0127822
0 0.989975 0.0909323 0.0107775
0 0.989965 0.14505 8.6539
0 0.990032 0.0909117 0.00765005
0 0.990044 0.0909043 0.00587934
0 0.990019 0.0909279 0.0102857
0 0.989996 0.0909395 0.0128239
0 0.989976 0.0909343 0.011974
0 0.989967 0.146906 9.09692
0 0.990032 0.090911 0.0072438
0 0.990042 0.0909057 0.00601343
0 0.990044 0.0909035 0.00538042
0 0.990043 0.0909045 0.00546016
0 0.990042 0.0909052 0.00572279
0 0.990018 0.0909285 0.0109905
0 0.989996 0.0909381 0.0129223
0 0.989976 0.0909324 0.0109321
0 0.989966 0.145731 8.71617
0 0.990033 0.0909119 0.00691337
0 0.990014 0.0909318 0.0102775
0 0.989995 0.0909371 0.0116999
0 0.989974 0.0909324 0.0111193
0 0.989965 0.146054 8.95937
0 0.990032 0.0909115 0.00718871
0 0.990032 0.090911 0.00626929
0 0.990032 0.090911 0.00657488
0 0.990015 0.0909322 0.0117205
0 0.989997 0.0909371 0.0130316
0 0.989978 0.0909321 0.0123808
0 0.989967 0.146158 8.86226
0 0.990017 0.0909283 0.00906073
0 0.989994 0.0909364 0.0106566
0 0.989974 0.0909321 0.0107854
0 0.989964 0.145671 8.9285
0 0.990013 0.0909324 0.00942015
0 0.990018 0.0909287 0.0104945
0 0.990017 0.0909287 0.0091468
0 0.990015 0.0909327 0.010554
0 0.989997 0.0909384 0.0129685
0 0.989979 0.0909324 0.012512
0 0.98997 0.145817 9.08046
0 0.989992 0.0909375 0.0100204
0 0.989971 0.0909326 0.00945819
0 0.989962 0.146021 8.86797
0 0.989993 0.0909381 0.0101181
0 0.989996 0.0909384 0.0121815
0 0.989994 0.0909383 0.0110357
0 0.989977 0.0909317 0.0113097
0 0.98997 0.144508 8.60973
0 0.989969 0.0909328 0.00790936
0 0.989958 0.145868 8.81077
0 0.989971 0.0909328 0.00925439
0 0.989975 0.0909322 0.010646
0 0.989967 0.145115 8.78938
0 0.989959 0.146 8.91009
0 0.989963 0.145698 8.88299
VECTORS fa_u float
0.0085161 0.00352482 0
0.00796405 0.00461289 0
0.00884306 0.00236923 0
0.00901119 0.00118668 0
1.09004e-05 3.76082e-06 0
0.00725215 0.00556476 0
0.00645405 0.0064337 0
1.01625e-05 5.49526e-06 0
1.02814e-05 8.7118e-06 0
0.00575962 0.00750142 0
0.00462534 0.0080285 0
0.00900909 -1.68932e-06 0
0.00894132 -0.00116509 0
1.14167e-05 2.11209e-06 0
1.14538e-05 7.8581e-07 0
1.17804e-05 3.3272e-06 0
1.12608e-05 4.75688e-06 0
1.14025e-05 7.31885e-06 0
8.61222e-06 8.12552e-06 0
1.08747e-05 6.7667e-06 0
1.04965e-05 7.70748e-06 0
0.00351582 0.00850496 0
0.00240014 0.00895155 0
7.51937e-06 7.72677e-06 0
3.90009e-06 9.12527e-06 0
1.14517e-05 -3.72364e-07 0
0.00892181 -0.0023931 0
9.98517e-06 -2.80118e-07 0
0.00831424 -0.00346152 0
1.21527e-05 1.31576e-06 0
1.17657e-05 2.58436e-07 0
1.04339e-05 1.91106e-06 0
0.00119388 0.00909276 0
9.46351e-06 3.29774e-06 0
9.93926e-06 4.85733e-06 0
9.59965e-06 8.20392e-06 0
7.94239e-06 8.52307e-06 0
8.7601e-06 5.7773e-06 0
8.85026e-06 7.07355e-06 0
3.25197e-06 1.07359e-05 0
2.08965e-06 1.15565e-05 0
5.86208e-06 9.35771e-06 0
4.23291e-06 1.01738e-05 0
7.9472e-07 0.00903887 0
1.14252e-05 -1.05719e-06 0
8.73745e-06 -4.77934e-06 0
1.09535e-05 -2.89274e-06 0
0.00777963 -0.00449203 0
9.82636e-06 -5.74634e-06 0
0.00711259 -0.00545988 0
9.96097e-06 4.62345e-07 0
1.04378e-05 -4.04445e-07 0
6.668e-06 1.084e-06 0
5.7694e-07 1.15476e-05 0
-1.00288e-06 1.11026e-05 0
6.38121e-06 2.81374e-06 0
7.1308e-06 7.13687e-06 0
6.05982e-06 8.14478e-06 0
5.61597e-06 4.35073e-06 0
2.78353e-06 1.11278e-05 0
1.31528e-06 1.15974e-05 0
4.38009e-06 8.45186e-06 0
3.26115e-06 9.68355e-06 0
-0.00116807 0.0088731 0
9.29327e-06 -1.69143e-06 0
1.03064e-05 -5.17929e-06 0
9.51416e-06 -3.6387e-06 0
9.24579e-06 -6.57114e-06 0
9.97757e-06 -6.27441e-06 0
0.00633807 -0.0063412 0
8.34594e-06 -7.34647e-06 0
0.00547411 -0.00712656 0
5.33654e-06 1.41658e-06 0
6.61905e-06 -6.28719e-07 0
5.48667e-06 9.99489e-08 0
-6.45162e-07 1.17233e-05 0
-2.33849e-06 1.06324e-05 0
-1.98114e-06 1.15495e-05 0
4.81427e-06 2.75399e-06 0
4.59114e-06 1.83802e-06 0
4.14533e-06 5.29892e-06 0
4.02798e-06 3.87027e-06 0
1.61647e-06 9.22302e-06 0
1.79388e-07 9.99144e-06 0
2.27554e-06 6.22188e-06 0
-0.0023328 0.0086962 0
6.03262e-06 -2.38804e-06 0
8.5059e-06 -4.73985e-06 0
9.33385e-06 -7.52857e-06 0
8.72268e-06 -6.12304e-06 0
7.32135e-06 -8.00923e-06 0
8.35966e-06 -8.34672e-06 0
0.00438065 -0.00758803 0
5.91952e-06 -7.71597e-06 0
4.54915e-06 6.68934e-07 0
5.3273e-06 -1.44532e-06 0
4.83889e-06 -5.90895e-07 0
4.71336e-06 -2.76091e-06 0
0.00344828 -0.00833415 0
-3.87131e-06 1.01038e-05 0
-1.12359e-06 9.83846e-06 0
-3.52944e-06 1.06515e-05 0
-2.74939e-06 1.02184e-05 0
3.21204e-06 1.22854e-06 0
3.66254e-06 2.78961e-06 0
2.75613e-06 4.74646e-06 0
3.02928e-06 3.87532e-06 0
3.82131e-07 6.84933e-06 0
1.28791e-06 5.18763e-06 0
-0.00342872 0.00830009 0
5.3289e-06 -3.99947e-06 0
7.46824e-06 -6.7592e-06 0
6.92122e-06 -9.01752e-06 0
6.97139e-06 -8.22172e-06 0
3.14229e-06 -9.54521e-06 0
5.33125e-06 -9.80265e-06 0
2.67178e-06 -1.0873e-05 0
2.76286e-06 3.18448e-07 0
2.23254e-06 1.51501e-06 0
3.31553e-06 -4.62948e-07 0
4.29003e-06 -1.78219e-06 0
3.79548e-06 -3.9636e-06 0
3.96172e-06 -3.1193e-06 0
2.22007e-06 -9.00844e-07 0
0.00232517 -0.00865858 0
-4.9495e-06 9.23532e-06 0
-4.74029e-06 9.82171e-06 0
-1.66593e-06 7.38106e-06 0
-3.99364e-06 9.53115e-06 0
2.08392e-06 2.6646e-06 0
1.5863e-06 4.24668e-06 0
-3.92182e-07 5.5035e-06 0
3.73957e-07 4.51034e-06 0
-7.41537e-06 7.96924e-06 0
-0.00450043 0.00779968 0
4.1106e-06 -5.29124e-06 0
5.25378e-06 -8.3746e-06 0
3.60161e-06 -1.09333e-05 0
4.17154e-06 -9.6024e-06 0
1.62808e-06 -1.14236e-05 0
2.42131e-06 -1.16867e-05 0
2.61163e-06 -4.93304e-06 0
8.99499e-07 2.08597e-06 0
1.23478e-06 5.0035e-07 0
2.65264e-06 -2.10573e-06 0
2.83767e-06 -3.8358e-06 0
1.80578e-06 -4.97456e-06 0
1.35566e-06 -1.98887e-06 0
3.72197e-07 -8.36734e-07 0
5.90581e-07 -1.11198e-05 0
0.00120545 -0.00902485 0
-2.04306e-06 5.52946e-06 0
-6.42031e-06 9.23996e-06 0
-5.33853e-06 9.43257e-06 0
-3.33947e-06 7.1337e-06 0
-8.41022e-06 9.02516e-06 0
3.67095e-07 3.37641e-06 0
-1.00661e-06 4.50325e-06 0
-4.0753e-07 2.4825e-06 0
-2.69697e-06 5.44374e-06 0
-9.07067e-06 7.79652e-06 0
-0.0054096 0.00703841 0
2.41829e-06 -6.3001e-06 0
2.62312e-06 -9.67508e-06 0
9.74914e-07 -1.21517e-05 0
1.55915e-06 -1.08828e-05 0
-5.69782e-07 -1.24472e-05 0
1.20961e-06 -5.70916e-06 0
-5.57243e-07 7.41661e-07 0
1.15939e-06 -3.27496e-06 0
5.76636e-07 -5.17222e-06 0
2.23393e-08 -2.2956e-06 0
-1.15822e-06 -7.86278e-07 0
-1.87047e-06 -1.09807e-05 0
7.33247e-06 -0.00876668 0
-3.93388e-06 5.31986e-06 0
-6.50239e-06 8.40092e-06 0
-5.25992e-06 6.89102e-06 0
-1.05265e-05 8.35048e-06 0
-8.13523e-06 7.80926e-06 0
-1.24303e-06 3.08804e-06 0
-2.31166e-06 3.72322e-06 0
-1.85e-06 2.00649e-06 0
-3.74848e-06 4.27186e-06 0
-5.16677e-06 5.16832e-06 0
-1.15368e-05 8.14496e-06 0
-9.6766e-06 7.20677e-06 0
-0.0062001 0.00620481 0
7.66308e-07 -6.99924e-06 0
2.50822e-07 -1.03853e-05 0
-2.52744e-06 -1.26267e-05 0
-1.31898e-06 -1.13097e-05 0
-1.39506e-07 -6.14532e-06 0
-8.47009e-07 -5.69304e-06 0
-2.2437e-06 8.82928e-07 0
-5.95702e-07 -3.71466e-06 0
-1.22009e-06 -2.53505e-06 0
-2.88091e-06 -4.68441e-07 0
-2.36731e-06 -1.89368e-06 0
-3.79856e-06 -1.25826e-05 0
-3.51657e-06 -1.2014e-05 0
-0.0011594 -0.00875842 0
-5.93279e-06 5.62811e-06 0
-9.1804e-06 7.10491e-06 0
-1.08041e-05 7.57597e-06 0
-5.837e-06 4.51453e-06 0
-3.04185e-06 2.22499e-06 0
-4.80937e-06 3.35658e-06 0
-1.21251e-05 7.75198e-06 0
-1.24556e-05 6.32762e-06 0
-0.00716062 0.0054891 0
-9.15516e-07 -7.13871e-06 0
-2.44041e-06 -1.05799e-05 0
-4.21109e-06 -1.15117e-05 0
-1.63505e-06 -5.97062e-06 0
-2.05312e-06 -5.08148e-06 0
-3.83551e-06 1.11809e-06 0
-4.6028e-06 -3.22102e-07 0
-2.3999e-06 -3.30368e-06 0
-3.81382e-06 -1.98371e-06 0
-4.96943e-06 -1.20693e-05 0
-3.37716e-06 -1.14977e-05 0
-0.00241196 -0.00903743 0
-7.08234e-06 4.91329e-06 0
-1.00726e-05 6.05246e-06 0
-5.91506e-06 3.10785e-06 0
-4.77847e-06 1.82308e-06 0
-1.06551e-05 4.95219e-06 0
-1.22532e-05 7.17202e-06 0
-1.1685e-05 9.00983e-06 0
-0.00752376 0.00434195 0
-2.51621e-06 -6.82496e-06 0
-4.83975e-06 -1.00962e-05 0
-2.8415e-06 -5.33766e-06 0
-3.3487e-06 -4.75199e-06 0
-5.23752e-06 6.00713e-07 0
-5.31625e-06 -9.46653e-07 0
-4.15827e-06 -3.5582e-06 0
-5.15488e-06 -2.39344e-06 0
-6.6412e-06 -9.79319e-06 0
-6.09205e-06 -1.12371e-05 0
-4.35935e-06 -9.85654e-06 0
-0.00330338 -0.0079986 0
-6.96297e-06 3.16864e-06 0
-5.64283e-06 1.65082e-06 0
-9.85482e-06 2.94602e-06 0
-1.19322e-05 4.69853e-06 0
-1.0449e-05 5.84759e-06 0
-0.008403 0.00348475 0
-4.13051e-06 -5.95076e-06 0
-4.04527e-06 -4.4494e-06 0
-5.38036e-06 -2.37051e-08 0
-5.19282e-06 -1.68758e-06 0
-4.74293e-06 -3.20234e-06 0
-7.23138e-06 -8.27641e-06 0
-8.10721e-06 -1.00627e-05 0
-6.2463e-06 -8.97188e-06 0
-0.00436058 -0.00754698 0
-6.80456e-06 1.22171e-06 0
-1.01239e-05 1.77052e-06 0
-1.12921e-05 3.06196e-06 0
-1.04733e-05 3.73472e-06 0
-0.0086548 0.00231616 0
-5.30679e-06 -4.84928e-06 0