# vtk DataFile Version 2.0
CellBP Time: 2.2
ASCII
DATASET UNSTRUCTURED_GRID
POINTS 296 double
-9.07744 -3.73071 0
-8.50637 -4.89005 0
-9.49364 -2.50718 0
-9.74616 -1.23967 0
-8.35779 -2.81878 0
-7.78837 -5.96462 0
-6.93671 -6.93669 0
-7.91745 -3.87482 0
-7.34288 -4.86799 0
-5.96482 -7.78862 0
-4.89021 -8.50662 0
-9.83109 0.0499977 0
-9.74716 1.33981 0
-8.6579 -1.68398 0
-8.78654 -0.529636 0
-7.58991 -2.00419 0
-7.22596 -2.90656 0
-6.63786 -5.77907 0
-5.82261 -6.59713 0
-6.79049 -3.88902 0
-6.22078 -4.67607 0
-3.73076 -9.07762 0
-2.5074 -9.49422 0
-4.90664 -7.30907 0
-3.91314 -7.88652 0
-8.793 0.643416 0
-9.49461 2.60747 0
-8.62353 1.77413 0
-9.07884 3.83125 0
-7.74452 -0.929008 0
-7.79475 0.0802606 0
-6.95277 -1.31592 0
-1.23969 -9.74611 0
-6.44169 -2.15319 0
-6.31958 -3.05622 0
-5.53673 -5.47476 0
-4.79608 -6.11569 0
-5.65922 -3.75713 0
-5.26958 -4.56174 0
-2.86626 -8.36425 0
-1.77863 -8.64056 0
-3.92828 -6.7238 0
-3.05672 -7.15288 0
0.0500605 -9.83107 0
-7.70576 1.14355 0
-8.33887 2.91553 0
-7.55216 2.11204 0
-8.50742 4.99066 0
-7.88036 3.97838 0
-7.79013 6.06598 0
-6.77893 -0.396871 0
-6.95678 0.552568 0
-5.77161 -1.00344 0
-0.590858 -8.81006 0
0.565705 -8.77125 0
-5.30332 -2.48036 0
-4.49213 -5.09592 0
-3.90264 -5.77554 0
-4.43907 -3.80489 0
-2.0625 -7.56226 0
-1.13553 -7.78618 0
-2.99466 -6.10231 0
-2.30911 -6.62006 0
1.33979 -9.74708 0
-6.68972 1.42211 0
-7.17248 3.11824 0
-6.65953 2.3731 0
-7.29506 4.98889 0
-6.71838 4.00324 0
-6.93738 7.03736 0
-6.57281 5.89444 0
-5.96557 7.88961 0
-4.45325 -1.1811 0
-5.81483 0.513778 0
-4.65631 -0.0103769 0
0.00851553 -7.84847 0
1.73865 -8.64424 0
0.949007 -7.76382 0
-4.03864 -2.40646 0
-3.48565 -1.39123 0
-3.29463 -4.80553 0
-3.26597 -3.26789 0
-1.37864 -6.67578 0
-0.508768 -7.02529 0
-1.97563 -5.53727 0
2.60749 -9.49469 0
-5.50758 2.03702 0
-6.09502 3.07236 0
-6.10543 4.86991 0
-5.76204 3.9917 0
-5.76165 6.71756 0
-5.45246 5.61972 0
-4.89086 8.6078 0
-4.83878 7.40506 0
-3.5016 -0.42431 0
-4.44947 1.24909 0
-3.71159 0.5921 0
-4.06233 2.31991 0
-3.73141 9.17922 0
2.86279 -8.33339 0
0.419711 -6.79583 0
2.02215 -7.52633 0
1.30616 -6.906 0
-2.44473 -0.873832 0
-2.83847 -2.13119 0
-2.29449 -4.09754 0
-2.32572 -2.9737 0
-0.442401 -5.86148 0
-1.22277 -4.49933 0
3.83158 -9.07951 0
-4.79006 3.39199 0
-5.08827 4.59445 0
-4.64751 6.2819 0
-4.53918 5.36011 0
-3.84403 7.99399 0
-3.82703 6.84625 0
-2.78353 8.42352 0
-1.64908 -0.137894 0
-1.45029 -0.890601 0
-2.48919 0.507282 0
-3.25373 1.44421 0
-3.23918 3.31672 0
-2.91108 2.37186 0
-1.35513 0.627128 0
-2.50754 9.59484 0
3.93302 -7.88761 0
2.96478 -7.15831 0
0.954152 -5.82239 0
2.07449 -6.41599 0
-1.68302 -1.99212 0
-1.43448 -3.2779 0
0.0902288 -4.74723 0
-0.566195 -3.69457 0
4.93257 -7.31943 0
4.99101 -8.50809 0
-3.7772 4.55193 0
-3.73505 5.75259 0
-2.88822 7.29049 0
-3.00994 6.35425 0
-1.6627 8.73444 0
-1.94028 7.62004 0
-2.3385 4.0519 0
-0.730745 -1.32727 0
-0.836909 -0.257624 0
-1.93626 1.68084 0
-2.12585 2.87596 0
-1.30662 3.54485 0
-0.869474 1.35087 0
-0.282367 0.456059 0
-0.533567 8.87252 0
-1.23973 9.84667 0
1.11285 -4.57487 0
3.9105 -6.71793 0
2.98818 -6.09529 0
2.11802 -5.42536 0
4.78491 -6.20597 0
-0.558871 -2.47689 0
0.495136 -3.46398 0
0.0535564 -1.61052 0
1.48197 -3.68234 0
5.86778 -6.61536 0
6.06566 -7.78967 0
-2.47587 5.3489 0
-2.13064 6.53506 0
-0.904158 7.80409 0
-1.27246 6.93272 0
0.0862167 7.8812 0
-1.14452 4.49499 0
0.150325 -0.61766 0
-0.797448 2.4886 0
-0.331655 3.60091 0
0.0631162 1.51277 0
0.741461 0.473434 0
0.646856 8.87521 0
0.0500303 9.93187 0
2.38118 -4.28556 0
3.85957 -5.64102 0
3.00173 -5.21324 0
5.57441 -5.49247 0
4.69155 -5.28365 0
0.629699 -2.29344 0
1.25624 -2.95137 0
0.757514 -1.39149 0
2.16447 -3.13601 0
2.99399 -3.47685 0
6.15596 -4.7924 0
6.65643 -5.77004 0
7.03856 -6.93851 0
-1.01972 5.8209 0
-0.372653 6.88436 0
1.12277 7.77053 0
0.558042 7.08064 0
-0.000760749 4.72554 0
0.607045 3.82806 0
1.33896 -0.641916 0
0.539131 2.65118 0
0.966128 1.57499 0
1.91028 0.213874 0
1.61484 1.06507 0
2.12969 7.58463 0
1.79946 8.7136 0
1.33982 9.84719 0
3.82322 -4.35206 0
5.11724 -4.44959 0
5.84654 -3.93567 0
3.78435 -3.20136 0
1.81238 -1.88273 0
3.01939 -2.5741 0
6.78439 -3.94846 0
7.38257 -4.89753 0
7.88967 -5.96568 0
0.483413 5.88223 0
1.42837 6.74286 0
2.37469 6.67009 0
1.2101 4.55662 0
1.4883 3.3979 0
2.43596 -0.692063 0
2.82825 0.142612 0
1.78901 2.16299 0
2.61208 1.15023 0
3.07253 7.17131 0
2.90471 8.37823 0
2.60779 9.59556 0
4.91193 -3.32832 0
6.12167 -3.10917 0
4.17334 -2.27551 0
3.24473 -1.50304 0
6.73252 -2.31343 0
7.23336 -3.04307 0
7.96635 -3.91295 0
8.60757 -4.89075 0
2.0239 5.60063 0
3.08706 6.15471 0
2.3642 4.12741 0
2.42033 3.06119 0
3.52604 -0.460908 0
3.61609 0.61335 0
2.96214 2.28832 0
3.54599 1.52544 0
4.01304 5.89939 0
3.9854 6.79475 0
3.97424 7.94055 0
3.83214 9.18062 0
5.56978 -1.91647 0
4.50984 -1.12976 0
6.71543 -1.3364 0
7.59433 -2.03689 0
8.39919 -2.86203 0
9.17892 -3.7313 0
3.41978 4.87795 0
3.3395 3.38589 0
4.69199 0.130093 0
4.51988 1.31017 0
4.06597 2.44419 0
4.57182 5.15388 0
4.84511 6.19261 0
4.98188 7.38258 0
4.99183 8.60958 0
5.88479 -0.434989 0
7.01287 -0.488373 0
7.76184 -1.08559 0
8.68736 -1.74643 0
9.59523 -2.50757 0
4.55356 3.82851 0
5.81924 1.09886 0
5.37264 2.53559 0
5.38191 4.62216 0
5.61411 5.52546 0
5.89918 6.67415 0
6.06565 7.88983 0
6.84839 0.46369 0
7.85609 -0.025646 0
8.86341 -0.584526 0
9.84781 -1.2399 0
6.96303 1.34993 0
5.72317 3.77982 0
6.54387 2.1983 0
6.38265 3.08916 0
6.29492 4.68882 0
6.69562 5.84004 0
7.03789 7.03776 0
7.78737 0.967981 0
8.86276 0.572963 0
9.93202 0.0499822 0
7.61929 2.0051 0
6.83202 3.90588 0
7.27257 2.94801 0
7.38126 4.88771 0
7.89093 6.06655 0
8.72636 1.72758 0
9.84743 1.33986 0
8.42429 2.83888 0
7.9848 3.91785 0
8.60865 4.99136 0
9.59548 2.60774 0
9.18027 3.83189 0
CELLS 542 2168
3 2 0 4
3 0 1 7
3 4 0 7
3 1 5 8
3 7 1 8
3 3 2 13
3 13 2 4
3 11 3 14
3 14 3 13
3 13 4 15
3 4 7 16
3 15 4 16
3 5 6 17
3 8 5 17
3 6 9 18
3 17 6 18
3 7 8 19
3 16 7 19
3 8 17 20
3 19 8 20
3 9 10 23
3 18 9 23
3 10 21 24
3 23 10 24
3 12 11 25
3 25 11 14
3 26 12 27
3 27 12 25
3 14 13 29
3 29 13 15
3 25 14 30
3 30 14 29
3 29 15 31
3 15 16 33
3 31 15 33
3 16 19 34
3 33 16 34
3 17 18 35
3 20 17 35
3 18 23 36
3 35 18 36
3 19 20 37
3 34 19 37
3 20 35 38
3 37 20 38
3 21 22 39
3 24 21 39
3 22 32 40
3 39 22 40
3 23 24 41
3 36 23 41
3 24 39 42
3 41 24 42
3 27 25 44
3 44 25 30
3 28 26 45
3 45 26 27
3 45 27 46
3 46 27 44
3 47 28 48
3 48 28 45
3 30 29 50
3 50 29 31
3 44 30 51
3 51 30 50
3 50 31 52
3 31 33 52
3 32 43 53
3 40 32 53
3 53 43 54
3 33 34 55
3 34 37 55
3 33 55 52
3 35 36 56
3 38 35 56
3 36 41 57
3 56 36 57
3 37 38 58
3 38 56 58
3 37 58 55
3 39 40 59
3 42 39 59
3 40 53 60
3 59 40 60
3 41 42 61
3 57 41 61
3 42 59 62
3 61 42 62
3 43 63 54
3 46 44 64
3 64 44 51
3 48 45 65
3 65 45 46
3 65 46 66
3 66 46 64
3 49 47 67
3 67 47 48
3 67 48 68
3 68 48 65
3 69 49 70
3 70 49 67
3 52 55 72
3 64 51 73
3 51 50 73
3 50 52 73
3 73 52 74
3 74 52 72
3 53 54 75
3 60 53 75
3 54 63 76
3 54 76 77
3 75 54 77
3 55 58 78
3 72 55 78
3 72 78 79
3 56 57 80
3 57 61 80
3 56 80 58
3 58 80 81
3 78 58 81
3 59 60 82
3 62 59 82
3 60 75 83
3 82 60 83
3 61 62 84
3 62 82 84
3 61 84 80
3 63 85 76
3 66 64 86
3 64 73 86
3 68 65 87
3 87 65 66
3 87 66 86
3 70 67 88
3 88 67 68
3 88 68 89
3 89 68 87
3 71 69 90
3 90 69 70
3 90 70 91
3 91 70 88
3 92 71 93
3 93 71 90
3 74 72 94
3 94 72 79
3 86 73 95
3 95 73 74
3 95 74 96
3 96 74 94
3 97 86 95
3 76 85 99
3 75 77 100
3 83 75 100
3 76 99 101
3 77 76 101
3 77 101 102
3 100 77 102
3 94 79 103
3 78 81 104
3 79 78 104
3 79 104 103
3 80 84 105
3 81 80 105
3 81 105 106
3 104 81 106
3 82 83 107
3 83 100 107
3 82 107 84
3 84 107 108
3 105 84 108
3 85 109 99
3 89 87 110
3 87 86 110
3 110 86 97
3 91 88 111
3 111 88 89
3 111 89 110
3 93 90 112
3 112 90 91
3 112 91 113
3 113 91 111
3 98 92 114
3 114 92 93
3 114 93 115
3 115 93 112
3 116 98 114
3 117 103 118
3 96 94 119
3 94 103 119
3 119 103 117
3 97 95 120
3 120 95 96
3 120 96 119
3 121 110 97
3 121 97 122
3 122 97 120
3 123 119 117
3 124 98 116
3 99 109 125
3 99 125 126
3 101 99 126
3 100 102 127
3 100 127 107
3 101 126 128
3 102 101 128
3 102 128 127
3 104 106 129
3 104 129 103
3 103 129 118
3 105 108 130
3 106 105 130
3 106 130 129
3 107 127 131
3 108 107 131
3 108 131 132
3 108 132 130
3 109 134 125
3 125 134 133
3 113 111 135
3 111 110 135
3 135 110 121
3 115 112 136
3 136 112 113
3 136 113 135
3 116 114 137
3 137 114 115
3 137 115 138
3 138 115 136
3 139 124 116
3 139 116 140
3 140 116 137
3 141 135 121
3 118 129 142
3 118 142 143
3 117 118 143
3 123 117 143
3 122 120 144
3 120 119 144
3 144 119 123
3 141 121 145
3 145 121 122
3 145 122 144
3 146 141 145
3 147 144 123
3 147 123 148
3 143 148 123
3 150 124 139
3 149 150 139
3 131 127 151
3 125 133 152
3 126 125 152
3 126 152 153
3 128 126 153
3 128 153 154
3 128 154 127
3 127 154 151
3 152 133 155
3 130 132 156
3 130 156 129
3 129 156 142
3 131 151 157
3 132 131 157
3 132 157 156
3 156 158 142
3 157 151 159
3 133 160 155
3 134 161 133
3 133 161 160
3 138 136 162
3 136 135 162
3 162 135 141
3 140 137 163
3 163 137 138
3 163 138 162
3 149 139 164
3 164 139 140
3 164 140 165
3 165 140 163
3 166 149 164
3 167 162 141
3 167 141 146
3 142 158 168
3 143 142 168
3 143 168 148
3 146 145 169
3 145 144 169
3 169 144 147
3 170 167 146
3 170 146 169
3 171 169 147
3 171 147 148
3 171 148 172
3 168 172 148
3 173 149 166
3 174 150 149
3 173 174 149
3 154 175 151
3 151 175 159
3 152 155 176
3 153 152 176
3 153 176 177
3 153 177 154
3 154 177 175
3 155 160 178
3 155 178 179
3 176 155 179
3 156 157 180
3 156 180 158
3 157 159 181
3 157 181 180
3 158 180 182
3 158 182 168
3 159 175 183
3 159 183 181
3 175 184 183
3 160 186 178
3 178 186 185
3 161 187 160
3 160 187 186
3 165 163 188
3 163 162 188
3 188 162 167
3 166 164 189
3 189 164 165
3 189 165 188
3 190 173 166
3 190 166 191
3 191 166 189
3 192 188 167
3 192 167 170
3 193 192 170
3 182 194 168
3 194 172 168
3 193 170 195
3 170 169 195
3 195 169 171
3 196 195 171
3 196 171 172
3 194 197 172
3 197 198 172
3 198 196 172
3 200 173 190
3 199 200 190
3 201 174 173
3 200 201 173
3 176 179 202
3 177 176 202
3 177 202 175
3 175 202 184
3 178 185 203
3 178 203 179
3 179 203 202
3 203 185 204
3 202 205 184
3 183 206 181
3 180 181 206
3 180 206 182
3 182 206 194
3 183 184 207
3 205 207 184
3 183 207 206
3 185 208 204
3 186 209 185
3 185 209 208
3 187 210 186
3 186 210 209
3 191 189 211
3 189 188 211
3 211 188 192
3 199 190 212
3 212 190 191
3 212 191 211
3 213 199 212
3 214 211 192
3 214 192 193
3 215 214 193
3 215 193 195
3 206 216 194
3 216 197 194
3 216 217 197
3 215 195 218
3 218 195 196
3 198 218 196
3 217 219 197
3 219 218 198
3 197 219 198
3 220 199 213
3 221 200 199
3 220 221 199
3 222 201 200
3 221 222 200
3 203 204 223
3 203 223 202
3 202 223 205
3 204 208 224
3 204 224 223
3 205 223 225
3 205 225 207
3 207 225 226
3 207 226 206
3 226 216 206
3 208 228 224
3 224 228 227
3 209 229 208
3 229 228 208
3 210 230 209
3 209 230 229
3 213 212 231
3 212 211 231
3 231 211 214
3 232 220 213
3 232 213 231
3 233 231 214
3 233 214 215
3 234 233 215
3 234 215 218
3 226 235 216
3 235 217 216
3 235 236 217
3 217 236 219
3 237 234 218
3 237 218 219
3 236 238 219
3 238 237 219
3 240 220 232
3 239 240 232
3 241 221 220
3 240 241 220
3 242 222 221
3 241 242 221
3 224 227 243
3 224 243 223
3 223 243 225
3 225 243 244
3 225 244 226
3 226 244 235
3 227 245 243
3 228 246 227
3 227 246 245
3 229 247 228
3 228 247 246
3 230 248 229
3 229 248 247
3 239 232 249
3 232 231 249
3 249 231 233
3 250 249 233
3 250 233 234
3 237 250 234
3 244 251 235
3 235 251 236
3 251 252 236
3 236 252 238
3 252 253 238
3 253 250 237
3 253 237 238
3 254 239 249
3 255 240 239
3 254 255 239
3 256 241 240
3 255 256 240
3 257 242 241
3 256 257 241
3 245 258 243
3 243 258 244
3 244 258 251
3 245 259 258
3 246 260 245
3 245 260 259
3 247 261 246
3 246 261 260
3 248 262 247
3 247 262 261
3 254 249 263
3 263 249 250
3 253 263 250
3 258 264 251
3 251 264 252
3 264 265 252
3 265 263 253
3 252 265 253
3 266 254 263
3 267 255 254
3 266 267 254
3 268 256 255
3 267 268 255
3 269 257 256
3 268 269 256
3 259 270 258
3 270 264 258
3 260 271 259
3 259 271 270
3 261 272 260
3 260 272 271
3 262 273 261
3 273 272 261
3 270 274 264
3 275 266 263
3 275 263 265
3 274 276 264
3 276 265 264
3 276 277 265
3 277 275 265
3 278 267 266
3 275 278 266
3 279 268 267
3 278 279 267
3 280 269 268
3 279 280 268
3 271 281 270
3 270 281 274
3 272 282 271
3 271 282 281
3 273 283 272
3 272 283 282
3 281 284 274
3 274 284 276
3 285 278 275
3 277 285 275
3 284 286 276
3 286 285 277
3 276 286 277
3 287 279 278
3 285 287 278
3 288 280 279
3 287 288 279
3 282 289 281
3 281 289 284
3 283 290 282
3 282 290 289
3 289 291 284
3 284 291 286
3 291 292 286
3 292 287 285
3 286 292 285
3 293 288 287
3 292 293 287
3 290 294 289
3 289 294 291
3 294 295 291
3 295 293 292
3 291 295 292
CELL_TYPES 542
5
5
5
5
5
5
5
5
5
5
5
5
5
5
5
5
5
5
5
5
5
5
5
5
5
5
5
5
5
5
5
5
5
5
5
5
5
5
5
5
5
5
5
5
5
5
5
5
5
5
5
5
5
5
5
5
5
5
5
5
5
5
5
5
5
5
5
5
5
5
5
5
5
5
5
5
5
5
5
5
5
5
5
5
5
5
5
5
5
5
5
5
5
5
5
5
5
5
5
5
5
5
5
5
5
5
5
5
5
5
5
5
5
5
5
5
5
5
5
5
5
5
5
5
5
5
5
5
5
5
5
5
5
5
5
5
5
5
5
5
5
5
5
5
5
5
5
5
5
5
5
5
5
5
5
5
5
5
5
5
5
5
5
5
5
5
5
5
5
5
5
5
5
5
5
5
5
5
5
5
5
5
5
5
5
5
5
5
5
5
5
5
5
5
5
5
5
5
5
5
5
5
5
5
5
5
5
5
5
5
5
5
5
5
5
5
5
5
5
5
5
5
5
5
5
5
5
5
5
5
5
5
5
5
5
5
5
5
5
5
5
5
5
5
5
5
5
5
5
5
5
5
5
5
5
5
5
5
5
5
5
5
5
5
5
5
5
5
5
5
5
5
5
5
5
5
5
5
5
5
5
5
5
5
5
5
5
5
5
5
5
5
5
5
5
5
5
5
5
5
5
5
5
5
5
5
5
5
5
5
5
5
5
5
5
5
5
5
5
5
5
5
5
5
5
5
5
5
5
5
5
5
5
5
5
5
5
5
5
5
5
5
5
5
5
5
5
5
5
5
5
5
5
5
5
5
5
5
5
5
5
5
5
5
5
5
5
5
5
5
5
5
5
5
5
5
5
5
5
5
5
5
5
5
5
5
5
5
5
5
5
5
5
5
5
5
5
5
5
5
5
5
5
5
5
5
5
5
5
5
5
5
5
5
5
5
5
5
5
5
5
5
5
5
5
5
5
5
5
5
5
5
5
5
5
5
5
5
5
5
5
5
5
5
5
5
5
5
5
5
5
5
5
5
5
5
5
5
5
5
5
5
5
5
5
5
5
5
5
5
5
5
5
5
5
5
5
5
5
5
5
5
5
5
5
5
5
5
5
5
5
5
5
5
5
5
5
5
5
5
5
5
5
5
5
5
5
5
5
5
5
5
5
5
5
5
5
5
5
5
5
5
5
5
5
5
5
5
5
5
5
5
5
5
5
5
5
5
5
5
5
5
POINT_DATA 296
SCALARS concentrations float 4
LOOKUP_TABLE default
0 0.976399 0.193125 13.3313
0 0.976386 0.19286 12.8493
0 0.9764 0.192318 12.8462
0 0.976399 0.191461 12.7913
0 0.976408 0.090936 0.0142255
0 0.976375 0.191914 13.1002
0 0.976382 0.191863 12.6074
0 0.976403 0.0909351 0.0139454
0 0.976392 0.0909349 0.0116309
0 0.976392 0.191831 12.932
0 0.976397 0.192115 12.8345
0 0.9764 0.190547 12.7632
0 0.976402 0.190788 12.5568
0 0.976408 0.0909366 0.0124231
0 0.976409 0.0909354 0.0119428
0 0.976426 0.0909354 0.012537
0 0.976423 0.0909341 0.0125436
0 0.97639 0.0909347 0.0106503
0 0.976398 0.0909356 0.0113508
0 0.976419 0.0909339 0.0118872
0 0.976416 0.0909339 0.0110259
0 0.976401 0.19344 12.9634
0 0.976408 0.194325 13.1191
0 0.976405 0.0909356 0.0118818
0 0.976408 0.0909363 0.0116155
0 0.97641 0.0909358 0.0122989
0 0.976398 0.190051 12.8048
0 0.976409 0.0909359 0.0122432
0 0.976396 0.190751 12.7747
0 0.976427 0.0909361 0.0121866
0 0.976428 0.0909347 0.0118442
0 0.976443 0.0909278 0.0105332
0 0.976415 0.191883 12.7251
0 0.976445 0.090924 0.00979393
0 0.97644 0.0909276 0.0104317
0 0.976417 0.0909343 0.0109168
0 0.976422 0.090935 0.0112626
0 0.976442 0.0909244 0.00929871
0 0.976437 0.090929 0.00986892
0 0.976413 0.0909377 0.0121104
0 0.97642 0.0909397 0.0140301
0 0.976426 0.0909353 0.01153
0 0.976429 0.0909357 0.0117593
0 0.976408 0.190817 12.5945
0 0.976428 0.0909364 0.0121589
0 0.976407 0.0909359 0.0116715
0 0.976427 0.0909377 0.0122716
0 0.976394 0.190067 12.7919
0 0.976406 0.0909362 0.0120671
0 0.976388 0.189256 11.9805
0 0.976447 0.0909257 0.00996471
0 0.976444 0.0909294 0.0106795
0 0.976458 0.0909094 0.00665368
0 0.97642 0.0909394 0.0135613
0 0.976416 0.0909371 0.0112865
0 0.976457 0.0909093 0.0065008
0 0.976443 0.0909262 0.00935459
0 0.976442 0.0909296 0.0102296
0 0.976457 0.0909104 0.00640916
0 0.976434 0.0909362 0.0123654
0 0.976436 0.0909365 0.0126252
0 0.976448 0.0909276 0.0100351
0 0.976447 0.0909311 0.0110222
0 0.976407 0.189456 12.6685
0 0.976448 0.0909258 0.00993045
0 0.976426 0.0909374 0.012077
0 0.976444 0.0909303 0.0107802
0 0.976402 0.0909387 0.0109286
0 0.976425 0.0909367 0.0116499
0 0.976393 0.189372 12.6938
0 0.976401 0.0909376 0.0104601
0 0.9764 0.189423 12.6657
0 0.976468 0.0909034 0.0052767
0 0.976459 0.0909101 0.00680466
0 0.976469 0.0909038 0.00544664
0 0.976436 0.0909368 0.0122228
0 0.976417 0.0909353 0.0116902
0 0.976435 0.0909367 0.011783
0 0.976468 0.0909035 0.00517593
0 0.976478 0.090901 0.00461303
0 0.976459 0.0909112 0.00659561
0 0.976469 0.0909045 0.00528082
0 0.976452 0.0909258 0.0101667
0 0.976451 0.0909283 0.0106916
0 0.976462 0.0909118 0.00700286
0 0.976408 0.189952 12.6742
0 0.97646 0.09091 0.0067929
0 0.976447 0.090927 0.0100484
0 0.976424 0.0909373 0.0115413
0 0.976443 0.0909309 0.0106994
0 0.976407 0.0909348 0.0115233
0 0.976425 0.0909371 0.0117391
0 0.976406 0.189492 12.6498
0 0.976412 0.0909344 0.0126659
0 0.97648 0.0908994 0.00437627
0 0.97647 0.0909045 0.00565052
0 0.976479 0.090901 0.0048117
0 0.97647 0.0909041 0.00566103
0 0.976403 0.189971 12.6739
0 0.976418 0.0909348 0.0112618
0 0.976453 0.0909277 0.0103142
0 0.976435 0.0909339 0.0111296
0 0.976451 0.0909309 0.0106925
0 0.976486 0.090894 0.00320556
0 0.97648 0.0908998 0.00432249
0 0.976471 0.0909051 0.00546449
0 0.976479 0.0909021 0.00479387
0 0.976465 0.0909125 0.00730598
0 0.976473 0.0909049 0.00556422
0 0.976408 0.189359 12.6004
0 0.97646 0.0909103 0.00690409
0 0.976447 0.0909279 0.0102355
0 0.976428 0.0909364 0.0123013
0 0.976445 0.0909322 0.011283
0 0.976414 0.0909344 0.0126244
0 0.97643 0.0909356 0.012458
0 0.976412 0.0909341 0.0115387
0 0.976491 0.090891 0.00257062
0 0.976492 0.0908908 0.00249087
0 0.976486 0.0908934 0.00323193
0 0.976481 0.0908999 0.00471029
0 0.976471 0.0909039 0.00571236
0 0.97648 0.0909017 0.00521596
0 0.976493 0.0908886 0.00226815
0 0.976402 0.189738 12.6197
0 0.976417 0.0909357 0.00986312
0 0.976436 0.0909325 0.0103773
0 0.976466 0.0909156 0.00776865
0 0.976453 0.0909293 0.0101829
0 0.976487 0.0908943 0.00325119
0 0.976482 0.0909005 0.00460176
0 0.976475 0.0909053 0.00573043
0 0.976483 0.0909005 0.00471861
0 0.976417 0.0909362 0.00993431
0 0.976407 0.189333 12.2606
0 0.976461 0.0909104 0.00706204
0 0.976449 0.0909278 0.010693
0 0.97643 0.0909353 0.0122415
0 0.976447 0.0909303 0.0112737
0 0.976412 0.0909342 0.0116274
0 0.97643 0.0909348 0.0118656
0 0.976472 0.0909038 0.00577771
0 0.976494 0.090889 0.00221603
0 0.976496 0.0908843 0.00111766
0 0.976487 0.0908931 0.00342493
0 0.976482 0.0908999 0.00495022
0 0.976481 0.0909019 0.00543829
0 0.976493 0.0908878 0.00242607
0 0.976496 0.0908805 0.000936474
0 0.976412 0.0909341 0.0115776
0 0.976403 0.190395 12.7041
0 0.976476 0.0909062 0.00592793
0 0.976436 0.0909335 0.0102798
0 0.976452 0.0909314 0.0103379
0 0.976467 0.0909163 0.00777205
0 0.976435 0.090936 0.011082
0 0.976489 0.0908945 0.00347861
0 0.976485 0.0909001 0.0047141
0 0.976495 0.0908897 0.00256173
0 0.976482 0.0909064 0.00599821
0 0.976417 0.0909351 0.0115842
0 0.976408 0.189415 12.5897
0 0.976462 0.0909099 0.00707541
0 0.97645 0.0909262 0.0103413
0 0.976431 0.0909351 0.011894
0 0.976447 0.0909297 0.010909
0 0.976431 0.0909358 0.0121171
0 0.976472 0.0909041 0.00590436
0 0.976497 0.090881 0.000971474
0 0.976488 0.0908927 0.00355412
0 0.976482 0.0909008 0.00524051
0 0.976494 0.0908866 0.00234815
0 0.976496 0.090882 0.00147407
0 0.976414 0.0909336 0.0114365
0 0.976403 0.18917 12.5436
0 0.976475 0.0909081 0.00632517
0 0.976453 0.0909283 0.00980871
0 0.976465 0.0909187 0.0081895
0 0.976434 0.0909368 0.0118622
0 0.976451 0.0909284 0.0100829
0 0.976492 0.0908932 0.00339066
0 0.976489 0.0908977 0.00435125
0 0.976495 0.0908893 0.00273047
0 0.976485 0.0909032 0.00545813
0 0.976477 0.0909101 0.00681223
0 0.976433 0.0909361 0.0118751
0 0.976415 0.0909338 0.0115785
0 0.976408 0.188364 12.443
0 0.976462 0.0909098 0.00701981
0 0.976451 0.0909257 0.0101596
0 0.976432 0.0909354 0.0124715
0 0.976449 0.0909294 0.0110486
0 0.976472 0.0909049 0.00608009
0 0.976481 0.0909029 0.00567376
0 0.976495 0.0908871 0.0023976
0 0.976489 0.0908935 0.00375869
0 0.976493 0.0908889 0.00284588
0 0.976494 0.0908897 0.00297969
0 0.976493 0.0908902 0.00308841
0 0.976433 0.0909355 0.0127338
0 0.976417 0.0909332 0.0128475
0 0.976406 0.18939 12.5565
0 0.976465 0.0909139 0.00744868
0 0.976453 0.0909269 0.0100603
0 0.97645 0.0909317 0.011165
0 0.976473 0.0909098 0.00681946
0 0.97649 0.0908936 0.00367106
0 0.976483 0.090903 0.00552271
0 0.976433 0.0909355 0.0119004
0 0.976415 0.0909345 0.0112617
0 0.976405 0.188777 12.776
0 0.976463 0.0909094 0.00700454
0 0.976452 0.0909259 0.0105108
0 0.976449 0.0909322 0.0118559
0 0.976472 0.0909047 0.00603876
0 0.976482 0.0909014 0.00536239
0 0.976491 0.0908949 0.00398444
0 0.976489 0.0908985 0.00472625
0 0.976488 0.0908952 0.00407663
0 0.976488 0.090897 0.00440578
0 0.976432 0.0909362 0.0126256
0 0.976418 0.0909318 0.0124204
0 0.976411 0.188167 12.5637
0 0.976464 0.0909137 0.00762775
0 0.976453 0.0909259 0.0101899
0 0.976475 0.0909064 0.00623512
0 0.976485 0.0908999 0.00498509
0 0.976451 0.0909286 0.0108411
0 0.976434 0.0909366 0.0124236
0 0.976416 0.0909353 0.0119412
0 0.976406 0.190423 12.4168
0 0.976463 0.0909095 0.00703284
0 0.976451 0.0909277 0.0107325
0 0.976472 0.0909042 0.00588236
0 0.976481 0.0909034 0.00570766
0 0.976483 0.0909017 0.00535
0 0.976482 0.090903 0.00557853
0 0.976482 0.0909025 0.00549921
0 0.976481 0.0909043 0.00584648
0 0.976448 0.0909307 0.0111568
0 0.976432 0.0909362 0.0122968
0 0.976415 0.0909317 0.0110574
0 0.976408 0.187052 12.303
0 0.976465 0.0909106 0.00713213
0 0.976475 0.0909038 0.00575052
0 0.976453 0.090926 0.0102913
0 0.976434 0.0909367 0.0124853
0 0.976417 0.0909344 0.0125322
0 0.976408 0.190499 12.7882
0 0.976463 0.0909097 0.00692871
0 0.976472 0.0909048 0.00592743
0 0.976474 0.090903 0.00556951
0 0.976472 0.0909039 0.00572059
0 0.976472 0.0909044 0.00582692
0 0.97645 0.0909263 0.0101934
0 0.976431 0.0909354 0.0119973
0 0.976414 0.090933 0.0115744
0 0.976405 0.188277 12.4271
0 0.976465 0.090911 0.0071974
0 0.976449 0.09093 0.0110391
0 0.976433 0.0909348 0.011983
0 0.976415 0.0909336 0.011711
0 0.976408 0.188941 12.5743
0 0.976462 0.0909103 0.0069867
0 0.976464 0.0909102 0.00697613
0 0.976463 0.09091 0.00692244
0 0.976447 0.0909298 0.0109299
0 0.976431 0.0909344 0.0117439
0 0.976413 0.0909331 0.0114764
0 0.976405 0.189153 12.533
0 0.976452 0.0909268 0.010361
0 0.976433 0.0909343 0.0118825
0 0.976415 0.0909332 0.0115011
0 0.976406 0.188185 12.4642
0 0.976449 0.0909307 0.0110588
0 0.97645 0.0909266 0.0103113
0 0.976451 0.090927 0.0102819
0 0.976448 0.0909306 0.0110703
0 0.976431 0.0909353 0.0122467
0 0.976412 0.0909317 0.0109129
0 0.976403 0.188405 12.4248
0 0.976433 0.0909355 0.0121074
0 0.976416 0.0909331 0.0119649
0 0.976407 0.188836 12.5669
0 0.976432 0.090936 0.0118836
0 0.976432 0.0909357 0.0122567
0 0.976431 0.090936 0.0119735
0 0.976414 0.0909317 0.0125899
0 0.976404 0.185993 12.4879
0 0.976415 0.0909337 0.011668
0 0.976407 0.188744 12.6218
0 0.976413 0.0909338 0.0106182
0 0.976414 0.0909341 0.0117225
0 0.976408 0.187229 12.596
0 0.976405 0.188925 12.3103
0 0.976404 0.188138 12.2658
VECTORS fa_u float
0.0123177 0.00509875 0
0.0111323 0.00641692 0
0.0124061 0.00333402 0
0.0126815 0.0016721 0
1.319e-05 5.32797e-06 0
0.010403 0.00796209 0
0.00891237 0.00891718 0
1.32631e-05 4.30864e-06 0
1.03414e-05 5.32303e-06 0
0.00786224 0.0102675 0
0.00642506 0.0111105 0
0.0127631 -1.95293e-05 0
0.0124491 -0.00164048 0
1.21668e-05 2.51045e-06 0
1.19347e-05 4.38771e-07 0
1.21019e-05 3.27446e-06 0
1.18148e-05 4.21327e-06 0
7.92261e-06 7.11762e-06 0
6.80563e-06 9.08432e-06 0
1.06577e-05 5.26481e-06 0
8.93264e-06 6.46364e-06 0
0.0049659 0.0119746 0
0.00335873 0.0126819 0
6.26956e-06 1.0093e-05 0
4.67728e-06 1.06322e-05 0
1.21831e-05 -1.6837e-06 0
0.0123738 -0.00329415 0
1.20539e-05 -2.14501e-06 0
0.0117914 -0.00491467 0
1.21466e-05 9.86972e-07 0
1.18365e-05 -4.27762e-07 0
1.04159e-05 1.56741e-06 0
0.00168623 0.0126129 0
9.36364e-06 2.87114e-06 0
9.59549e-06 4.09226e-06 0
7.40947e-06 8.01722e-06 0
6.39662e-06 9.26976e-06 0
7.83173e-06 5.01298e-06 0
7.35741e-06 6.57754e-06 0
3.02138e-06 1.17275e-05 0
1.22073e-06 1.39768e-05 0
5.11901e-06 1.03314e-05 0
3.96152e-06 1.10719e-05 0
3.80063e-05 0.0125945 0
1.19919e-05 -2.00846e-06 0
1.09594e-05 -4.0144e-06 0
1.18014e-05 -3.36442e-06 0
0.0110853 -0.00638354 0
1.04959e-05 -5.95407e-06 0
0.00952019 -0.00727317 0
9.96471e-06 -5.56951e-09 0
1.06295e-05 -1.03269e-06 0
6.61116e-06 7.50994e-07 0
2.61142e-06 1.33075e-05 0
-9.37743e-07 1.12475e-05 0
6.01209e-06 2.4729e-06 0
5.85433e-06 7.29624e-06 0
5.19488e-06 8.81236e-06 0
4.84979e-06 4.19009e-06 0
2.55756e-06 1.2098e-05 0
1.58084e-06 1.25258e-05 0
3.92478e-06 9.23574e-06 0
3.06589e-06 1.05873e-05 0
-0.00167785 0.0125569 0
9.67776e-06 -2.22594e-06 0
1.09187e-05 -5.16101e-06 0
1.00081e-05 -4.00615e-06 0
9.49085e-06 -5.41833e-06 0
9.98475e-06 -6.00202e-06 0
0.00896945 -0.00898235 0
7.05077e-06 -7.72665e-06 0
0.00769 -0.0100639 0
5.13991e-06 1.19365e-06 0
6.72601e-06 -1.03162e-06 0
5.44257e-06 -2.10498e-07 0
-1.01747e-07 1.22224e-05 0
-2.01002e-06 1.15161e-05 0
-1.53447e-06 1.16826e-05 0
4.43752e-06 2.66432e-06 0
4.28191e-06 1.7162e-06 0
3.52008e-06 5.57773e-06 0
3.52175e-06 3.93501e-06 0
1.63943e-06 1.00336e-05 0
4.06958e-07 1.06839e-05 0
2.00765e-06 6.70891e-06 0
-0.00328025 0.0122424 0
6.2163e-06 -2.73882e-06 0
8.74482e-06 -4.9496e-06 0
8.87781e-06 -7.37464e-06 0
8.69509e-06 -6.23471e-06 0
6.83868e-06 -9.27464e-06 0
7.77898e-06 -8.79173e-06 0
0.00632845 -0.010953 0
5.93165e-06 -1.11911e-05 0
4.3505e-06 4.74244e-07 0
5.36238e-06 -1.78137e-06 0
4.7344e-06 -8.59001e-07 0
4.76586e-06 -3.05513e-06 0
0.00488233 -0.0116958 0
-3.17182e-06 1.08059e-05 0
-8.14955e-07 1.02819e-05 0
-2.87997e-06 1.07506e-05 0
-2.30106e-06 1.04419e-05 0
2.99129e-06 1.15228e-06 0
3.30172e-06 2.78973e-06 0
2.32863e-06 4.94349e-06 0
2.64917e-06 3.99538e-06 0
4.05612e-07 7.29471e-06 0
1.10572e-06 5.45325e-06 0
-0.0048178 0.011643 0
5.41967e-06 -4.2771e-06 0
7.38335e-06 -7.08884e-06 0
6.87107e-06 -1.02034e-05 0
6.97918e-06 -8.86556e-06 0
6.27992e-06 -1.09516e-05 0
6.10523e-06 -1.08595e-05 0
3.89585e-06 -1.08612e-05 0
2.56001e-06 2.33303e-07 0
2.0036e-06 1.47987e-06 0
3.17313e-06 -6.13672e-07 0
4.24477e-06 -2.04175e-06 0
3.86199e-06 -4.20905e-06 0
3.97782e-06 -3.37389e-06 0
2.03289e-06 -1.00591e-06 0
0.00326181 -0.0121908 0
-3.43662e-06 9.24504e-06 0
-3.75962e-06 9.67232e-06 0
-1.42953e-06 7.63599e-06 0
-3.3986e-06 9.599e-06 0
1.82047e-06 2.69373e-06 0
1.32923e-06 4.40561e-06 0
-3.51148e-07 5.71967e-06 0
2.88575e-07 4.70978e-06 0
-6.78053e-06 7.2605e-06 0
-0.00613167 0.0106172 0
4.25125e-06 -5.63909e-06 0
5.62952e-06 -9.0911e-06 0
4.76444e-06 -1.12763e-05 0
4.86977e-06 -1.01676e-05 0
2.08662e-06 -1.14386e-05 0
3.11085e-06 -1.14505e-05 0
2.72546e-06 -5.09449e-06 0
6.96477e-07 2.10374e-06 0
1.0226e-06 4.51069e-07 0
2.57222e-06 -2.26138e-06 0
2.88164e-06 -4.02502e-06 0
1.91105e-06 -5.09145e-06 0
1.24694e-06 -2.08109e-06 0
2.56124e-07 -9.00768e-07 0
6.24532e-07 -1.15607e-05 0
0.00166529 -0.0125944 0
-1.83277e-06 5.63749e-06 0
-5.29953e-06 8.80844e-06 0
-4.52864e-06 9.29321e-06 0
-2.91052e-06 7.2065e-06 0
-7.17727e-06 8.44384e-06 0
2.30649e-07 3.47096e-06 0
-9.80129e-07 4.61108e-06 0
-5.16349e-07 2.50915e-06 0
-2.47897e-06 5.46198e-06 0
-8.37596e-06 8.00237e-06 0
-0.0076681 0.00998499 0
2.71663e-06 -6.53309e-06 0
3.2383e-06 -9.82123e-06 0
1.31785e-06 -1.18208e-05 0
2.01479e-06 -1.07213e-05 0
-3.03843e-07 -1.21133e-05 0
1.36509e-06 -5.74439e-06 0
-6.5903e-07 7.13751e-07 0
1.14366e-06 -3.36509e-06 0
6.58124e-07 -5.19902e-06 0
-3.66626e-08 -2.34786e-06 0
-1.22161e-06 -8.24947e-07 0
-1.35556e-06 -1.13559e-05 0
1.11155e-05 -0.0125436 0
-3.51714e-06 5.25714e-06 0
-5.56414e-06 8.07781e-06 0
-4.61049e-06 6.76841e-06 0
-8.9213e-06 7.81802e-06 0
-6.94527e-06 7.3095e-06 0
-1.30926e-06 3.12769e-06 0
-2.23556e-06 3.73305e-06 0
-1.87235e-06 1.98741e-06 0
-3.49603e-06 4.19153e-06 0
-4.71129e-06 4.92039e-06 0
-9.43549e-06 7.21034e-06 0
-8.67073e-06 7.67328e-06 0
-0.00878589 0.00881116 0
1.03085e-06 -6.94371e-06 0
5.49134e-07 -1.01447e-05 0
-2.29399e-06 -1.22587e-05 0
-1.0887e-06 -1.09949e-05 0
4.21145e-09 -6.08009e-06 0
-7.75991e-07 -5.62044e-06 0
-2.25564e-06 8.12775e-07 0
-6.17119e-07 -3.70768e-06 0
-1.28454e-06 -2.53948e-06 0
-2.93704e-06 -5.0233e-07 0
-2.4463e-06 -1.88519e-06 0
-3.58843e-06 -1.22177e-05 0
-3.82859e-06 -1.22638e-05 0
-0.00167166 -0.0124447 0
-5.24257e-06 5.29135e-06 0
-7.79981e-06 6.35388e-06 0
-9.23135e-06 6.28006e-06 0
-5.41488e-06 4.14537e-06 0
-2.98963e-06 2.13044e-06 0
-4.56631e-06 3.10629e-06 0
-1.03281e-05 5.9119e-06 0
-9.43891e-06 6.14274e-06 0
-0.0101388 0.00777372 0
-7.49411e-07 -6.96433e-06 0
-2.26128e-06 -1.02647e-05 0
-3.98042e-06 -1.11678e-05 0
-1.54558e-06 -5.83762e-06 0
-2.0423e-06 -4.95825e-06 0
-3.86085e-06 9.84692e-07 0
-4.7078e-06 -4.17207e-07 0
-2.46806e-06 -3.24462e-06 0
-3.93785e-06 -1.97593e-06 0
-4.65733e-06 -1.17352e-05 0
-3.21145e-06 -1.1998e-05 0
-0.00324433 -0.0121376 0
-6.36793e-06 4.19905e-06 0
-9.06263e-06 4.65855e-06 0
-5.64844e-06 2.64043e-06 0
-4.7332e-06 1.56461e-06 0
-1.02453e-05 3.54461e-06 0
-1.14036e-05 4.92982e-06 0
-1.08894e-05 4.90032e-06 0
-0.010764 0.00618992 0
-2.39755e-06 -6.61155e-06 0
-4.56538e-06 -9.71306e-06 0
-2.81511e-06 -5.165e-06 0
-3.3934e-06 -4.58935e-06 0
-5.33482e-06 4.02735e-07 0
-5.48389e-06 -1.02324e-06 0
-4.29359e-06 -3.43605e-06 0
-5.35798e-06 -2.33953e-06 0
-6.1966e-06 -9.27771e-06 0
-5.71059e-06 -1.08903e-05 0
-4.39704e-06 -1.01455e-05 0
-0.0046712 -0.0113817 0
-6.71463e-06 2.40438e-06 0
-5.61613e-06 1.23594e-06 0
-1.01174e-05 1.88408e-06 0
-1.20699e-05 3.19389e-06 0
-1.17795e-05 4.27781e-06 0
-0.0118201 0.00488072 0
-4.02087e-06 -5.64265e-06 0
-4.13279e-06 -4.24906e-06 0
-5.56437e-06 -2.3919e-07 0
-5.47048e-06 -1.67305e-06 0
-4.97419e-06 -3.03487e-06 0
-6.82111e-06 -7.57479e-06 0
-7.30551e-06 -9.51656e-06 0
-6.53662e-06 -9.55189e-06 0
-0.00623117 -0.010752 0
-7.16561e-06 6.75725e-07 0
-1.10091e-05 8.13355e-07 0
-1.18529e-05 1.76124e-06 0
-1.13233e-05 2.98816e-06 0
-0.0121382 0.00328286 0
-5.39911e-06 -4.43435e-06 0