# vtk DataFile Version 2.0
CellBP Time: 0.2
ASCII
DATASET UNSTRUCTURED_GRID
POINTS 296 double
-9.18141 -3.77377 0
-8.60335 -4.946 0
-9.60161 -2.53613 0
-9.85666 -1.25423 0
-8.35803 -2.81886 0
-7.87724 -6.03277 0
-7.01549 -7.01546 0
-7.91767 -3.87493 0
-7.34308 -4.86812 0
-6.03281 -7.87724 0
-4.94603 -8.60334 0
-9.94221 0.0500024 0
-9.85733 1.35432 0
-8.65814 -1.68403 0
-8.78678 -0.529652 0
-7.59016 -2.00426 0
-7.22619 -2.90666 0
-6.63804 -5.77923 0
-5.82276 -6.59731 0
-6.7907 -3.88915 0
-6.22098 -4.67622 0
-3.77373 -9.18129 0
-2.5366 -9.60329 0
-4.90678 -7.30927 0
-3.91325 -7.88674 0
-8.79324 0.643434 0
-9.60177 2.63619 0
-8.62376 1.77418 0
-9.18158 3.87385 0
-7.74477 -0.929036 0
-7.795 0.0802597 0
-6.95299 -1.31596 0
-1.25423 -9.85654 0
-6.44188 -2.15325 0
-6.31979 -3.05632 0
-5.5369 -5.47494 0
-4.79623 -6.11589 0
-5.6594 -3.75725 0
-5.26975 -4.5619 0
-2.86634 -8.36449 0
-1.77869 -8.64082 0
-3.9284 -6.72402 0
-3.05683 -7.15311 0
0.050007 -9.94212 0
-7.70601 1.14359 0
-8.33909 2.9156 0
-7.5524 2.1121 0
-8.60355 5.04613 0
-7.88057 3.97849 0
-7.87742 6.13292 0
-6.77914 -0.396881 0
-6.95701 0.55258 0
-5.77175 -1.00346 0
-0.590882 -8.81031 0
0.565716 -8.77149 0
-5.30345 -2.48042 0
-4.49227 -5.09608 0
-3.90277 -5.77573 0
-4.43919 -3.80499 0
-2.06257 -7.56251 0
-1.13557 -7.78643 0
-2.99476 -6.1025 0
-2.30919 -6.62029 0
1.35426 -9.85677 0
-6.68993 1.42214 0
-7.17271 3.11834 0
-6.65974 2.37318 0
-7.29525 4.98902 0
-6.7186 4.00336 0
-7.01563 7.11563 0
-6.57299 5.89459 0
-6.03293 7.97742 0
-4.45337 -1.18113 0
-5.81497 0.51379 0
-4.65643 -0.0103826 0
0.00851783 -7.84873 0
1.73869 -8.64447 0
0.949037 -7.76407 0
-4.03874 -2.40653 0
-3.48574 -1.39128 0
-3.29472 -4.80566 0
-3.26606 -3.26798 0
-1.37869 -6.67599 0
-0.508782 -7.02551 0
-1.97569 -5.53741 0
2.63618 -9.60174 0
-5.50771 2.03706 0
-6.09521 3.07246 0
-6.10563 4.87006 0
-5.76223 3.99182 0
-5.7618 6.71773 0
-5.45264 5.61989 0
-4.94615 8.70358 0
-4.83891 7.40526 0
-3.5017 -0.424329 0
-4.44959 1.24912 0
-3.71169 0.592108 0
-4.06243 2.31997 0
-3.77387 9.28163 0
2.86286 -8.33361 0
0.419724 -6.79604 0
2.02221 -7.52656 0
1.30621 -6.90622 0
-2.44481 -0.873864 0
-2.83855 -2.13126 0
-2.29455 -4.09765 0
-2.32579 -2.97379 0
-0.442419 -5.86164 0
-1.22281 -4.49945 0
3.87388 -9.18165 0
-4.79018 3.39207 0
-5.08843 4.59459 0
-4.64766 6.2821 0
-4.53933 5.36028 0
-3.84413 7.9942 0
-3.82716 6.84646 0
-2.7836 8.42374 0
-1.64914 -0.137908 0
-1.45034 -0.890639 0
-2.48926 0.507285 0
-3.25383 1.44424 0
-3.23926 3.3168 0
-2.91117 2.37192 0
-1.35518 0.627141 0
-2.53619 9.70178 0
3.93311 -7.88782 0
2.96487 -7.15853 0
0.954176 -5.82256 0
2.07456 -6.4162 0
-1.68307 -1.99218 0
-1.43452 -3.278 0
0.0902267 -4.74736 0
-0.566211 -3.69468 0
4.9327 -7.31962 0
5.04613 -8.60354 0
-3.77729 4.55204 0
-3.73517 5.75277 0
-2.88831 7.29072 0
-3.01004 6.35445 0
-1.66274 8.73467 0
-1.94034 7.62027 0
-2.33856 4.052 0
-0.73077 -1.32732 0
-0.836942 -0.257641 0
-1.93632 1.68088 0
-2.12591 2.87604 0
-1.30666 3.54495 0
-0.869508 1.3509 0
-0.28238 0.456072 0
-0.53358 8.87275 0
-1.25425 9.95671 0
1.11288 -4.57499 0
3.91062 -6.71814 0
2.98827 -6.0955 0
2.11808 -5.42552 0
4.78506 -6.20617 0
-0.558886 -2.47697 0
0.495147 -3.46409 0
0.053557 -1.61058 0
1.48202 -3.68246 0
5.86794 -6.61553 0
6.1329 -7.87737 0
-2.47593 5.34903 0
-2.13071 6.53526 0
-0.904187 7.80433 0
-1.27251 6.93294 0
0.0862187 7.88145 0
-1.14455 4.49511 0
0.15033 -0.617681 0
-0.797476 2.48867 0
-0.331671 3.60101 0
0.0631117 1.51282 0
0.741481 0.473447 0
0.646874 8.87544 0
0.049993 10.0423 0
2.38125 -4.28567 0
3.85969 -5.6412 0
3.00182 -5.21339 0
5.5746 -5.49264 0
4.69169 -5.28381 0
0.629716 -2.29352 0
1.25627 -2.95146 0
0.757545 -1.39154 0
2.16454 -3.13611 0
2.99409 -3.47696 0
6.15615 -4.79256 0
6.6566 -5.7702 0
7.11649 -7.01648 0
-1.01975 5.82104 0
-0.372667 6.88456 0
1.12281 7.77078 0
0.558061 7.08087 0
-0.000762615 4.72566 0
0.607059 3.82818 0
1.339 -0.641937 0
0.539141 2.65125 0
0.96615 1.57504 0
1.91034 0.213882 0
1.61488 1.06511 0
2.12976 7.58487 0
1.79951 8.71383 0
1.35425 9.95678 0
3.82333 -4.35218 0
5.1174 -4.44974 0
5.84673 -3.93581 0
3.78446 -3.20145 0
1.81244 -1.88278 0
3.01948 -2.57417 0
6.7846 -3.94859 0
7.38275 -4.89767 0
7.97741 -6.03292 0
0.483427 5.88237 0
1.42842 6.74307 0
2.37478 6.67031 0
1.21013 4.55674 0
1.48834 3.398 0
2.43603 -0.692086 0
2.82835 0.142619 0
1.78906 2.16306 0
2.61216 1.15027 0
3.07263 7.17154 0
2.90479 8.37844 0
2.63622 9.70187 0
4.91206 -3.32841 0
6.12185 -3.10927 0
4.17345 -2.27557 0
3.24483 -1.50308 0
6.73273 -2.31351 0
7.23359 -3.04318 0
7.96656 -3.91306 0
8.70348 -4.94609 0
2.02395 5.60076 0
3.08716 6.15491 0
2.36426 4.12751 0
2.4204 3.06129 0
3.52615 -0.460918 0
3.6162 0.613371 0
2.96223 2.28839 0
3.5461 1.52548 0
4.01317 5.89958 0
3.98552 6.79498 0
3.97434 7.94076 0
3.87394 9.28177 0
5.56992 -1.91652 0
4.50996 -1.12978 0
6.71564 -1.33643 0
7.59458 -2.03695 0
8.3994 -2.86211 0
9.28158 -3.77384 0
3.41986 4.87807 0
3.33959 3.38598 0
4.6921 0.130098 0
4.52 1.31021 0
4.06608 2.44425 0
4.57196 5.15404 0
4.84526 6.1928 0
4.982 7.38278 0
5.04696 8.70498 0
5.88493 -0.435004 0
7.0131 -0.488389 0
7.76208 -1.08563 0
8.68759 -1.74648 0
9.70184 -2.53621 0
4.55367 3.82861 0
5.81938 1.09889 0
5.37277 2.53565 0
5.38208 4.6223 0
5.61429 5.52563 0
5.89933 6.67433 0
6.13289 7.97737 0
6.8486 0.463701 0
7.85633 -0.0256465 0
8.86364 -0.584546 0
9.9569 -1.25427 0
6.96325 1.34997 0
5.72334 3.77994 0
6.54407 2.19836 0
6.38285 3.08926 0
6.29513 4.68897 0
6.69579 5.84018 0
7.11565 7.11563 0
7.78762 0.96801 0
8.86299 0.572975 0
10.0423 0.0499971 0
7.61953 2.00516 0
6.83223 3.90601 0
7.2728 2.9481 0
7.38145 4.88783 0
7.97762 6.13306 0
8.72658 1.72762 0
9.95686 1.35426 0
8.42451 2.83895 0
7.985 3.91795 0
8.70373 5.04621 0
9.70185 2.6362 0
9.28176 3.87391 0
CELLS 542 2168
3 2 0 4
3 0 1 7
3 4 0 7
3 1 5 8
3 7 1 8
3 3 2 13
3 13 2 4
3 11 3 14
3 14 3 13
3 13 4 15
3 4 7 16
3 15 4 16
3 5 6 17
3 8 5 17
3 6 9 18
3 17 6 18
3 7 8 19
3 16 7 19
3 8 17 20
3 19 8 20
3 9 10 23
3 18 9 23
3 10 21 24
3 23 10 24
3 12 11 25
3 25 11 14
3 26 12 27
3 27 12 25
3 14 13 29
3 29 13 15
3 25 14 30
3 30 14 29
3 29 15 31
3 15 16 33
3 31 15 33
3 16 19 34
3 33 16 34
3 17 18 35
3 20 17 35
3 18 23 36
3 35 18 36
3 19 20 37
3 34 19 37
3 20 35 38
3 37 20 38
3 21 22 39
3 24 21 39
3 22 32 40
3 39 22 40
3 23 24 41
3 36 23 41
3 24 39 42
3 41 24 42
3 27 25 44
3 44 25 30
3 28 26 45
3 45 26 27
3 45 27 46
3 46 27 44
3 47 28 48
3 48 28 45
3 30 29 50
3 50 29 31
3 44 30 51
3 51 30 50
3 50 31 52
3 31 33 52
3 32 43 53
3 40 32 53
3 53 43 54
3 33 34 55
3 34 37 55
3 33 55 52
3 35 36 56
3 38 35 56
3 36 41 57
3 56 36 57
3 37 38 58
3 38 56 58
3 37 58 55
3 39 40 59
3 42 39 59
3 40 53 60
3 59 40 60
3 41 42 61
3 57 41 61
3 42 59 62
3 61 42 62
3 43 63 54
3 46 44 64
3 64 44 51
3 48 45 65
3 65 45 46
3 65 46 66
3 66 46 64
3 49 47 67
3 67 47 48
3 67 48 68
3 68 48 65
3 69 49 70
3 70 49 67
3 52 55 72
3 64 51 73
3 51 50 73
3 50 52 73
3 73 52 74
3 74 52 72
3 53 54 75
3 60 53 75
3 54 63 76
3 54 76 77
3 75 54 77
3 55 58 78
3 72 55 78
3 72 78 79
3 56 57 80
3 57 61 80
3 56 80 58
3 58 80 81
3 78 58 81
3 59 60 82
3 62 59 82
3 60 75 83
3 82 60 83
3 61 62 84
3 62 82 84
3 61 84 80
3 63 85 76
3 66 64 86
3 64 73 86
3 68 65 87
3 87 65 66
3 87 66 86
3 70 67 88
3 88 67 68
3 88 68 89
3 89 68 87
3 71 69 90
3 90 69 70
3 90 70 91
3 91 70 88
3 92 71 93
3 93 71 90
3 74 72 94
3 94 72 79
3 86 73 95
3 95 73 74
3 95 74 96
3 96 74 94
3 97 86 95
3 76 85 99
3 75 77 100
3 83 75 100
3 76 99 101
3 77 76 101
3 77 101 102
3 100 77 102
3 94 79 103
3 78 81 104
3 79 78 104
3 79 104 103
3 80 84 105
3 81 80 105
3 81 105 106
3 104 81 106
3 82 83 107
3 83 100 107
3 82 107 84
3 84 107 108
3 105 84 108
3 85 109 99
3 89 87 110
3 87 86 110
3 110 86 97
3 91 88 111
3 111 88 89
3 111 89 110
3 93 90 112
3 112 90 91
3 112 91 113
3 113 91 111
3 98 92 114
3 114 92 93
3 114 93 115
3 115 93 112
3 116 98 114
3 117 103 118
3 96 94 119
3 94 103 119
3 119 103 117
3 97 95 120
3 120 95 96
3 120 96 119
3 121 110 97
3 121 97 122
3 122 97 120
3 123 119 117
3 124 98 116
3 99 109 125
3 99 125 126
3 101 99 126
3 100 102 127
3 100 127 107
3 101 126 128
3 102 101 128
3 102 128 127
3 104 106 129
3 104 129 103
3 103 129 118
3 105 108 130
3 106 105 130
3 106 130 129
3 107 127 131
3 108 107 131
3 108 131 132
3 108 132 130
3 109 134 125
3 125 134 133
3 113 111 135
3 111 110 135
3 135 110 121
3 115 112 136
3 136 112 113
3 136 113 135
3 116 114 137
3 137 114 115
3 137 115 138
3 138 115 136
3 139 124 116
3 139 116 140
3 140 116 137
3 141 135 121
3 118 129 142
3 118 142 143
3 117 118 143
3 123 117 143
3 122 120 144
3 120 119 144
3 144 119 123
3 141 121 145
3 145 121 122
3 145 122 144
3 146 141 145
3 147 144 123
3 147 123 148
3 143 148 123
3 150 124 139
3 149 150 139
3 131 127 151
3 125 133 152
3 126 125 152
3 126 152 153
3 128 126 153
3 128 153 154
3 128 154 127
3 127 154 151
3 152 133 155
3 130 132 156
3 130 156 129
3 129 156 142
3 131 151 157
3 132 131 157
3 132 157 156
3 156 158 142
3 157 151 159
3 133 160 155
3 134 161 133
3 133 161 160
3 138 136 162
3 136 135 162
3 162 135 141
3 140 137 163
3 163 137 138
3 163 138 162
3 149 139 164
3 164 139 140
3 164 140 165
3 165 140 163
3 166 149 164
3 167 162 141
3 167 141 146
3 142 158 168
3 143 142 168
3 143 168 148
3 146 145 169
3 145 144 169
3 169 144 147
3 170 167 146
3 170 146 169
3 171 169 147
3 171 147 148
3 171 148 172
3 168 172 148
3 173 149 166
3 174 150 149
3 173 174 149
3 154 175 151
3 151 175 159
3 152 155 176
3 153 152 176
3 153 176 177
3 153 177 154
3 154 177 175
3 155 160 178
3 155 178 179
3 176 155 179
3 156 157 180
3 156 180 158
3 157 159 181
3 157 181 180
3 158 180 182
3 158 182 168
3 159 175 183
3 159 183 181
3 175 184 183
3 160 186 178
3 178 186 185
3 161 187 160
3 160 187 186
3 165 163 188
3 163 162 188
3 188 162 167
3 166 164 189
3 189 164 165
3 189 165 188
3 190 173 166
3 190 166 191
3 191 166 189
3 192 188 167
3 192 167 170
3 193 192 170
3 182 194 168
3 194 172 168
3 193 170 195
3 170 169 195
3 195 169 171
3 196 195 171
3 196 171 172
3 194 197 172
3 197 198 172
3 198 196 172
3 200 173 190
3 199 200 190
3 201 174 173
3 200 201 173
3 176 179 202
3 177 176 202
3 177 202 175
3 175 202 184
3 178 185 203
3 178 203 179
3 179 203 202
3 203 185 204
3 202 205 184
3 183 206 181
3 180 181 206
3 180 206 182
3 182 206 194
3 183 184 207
3 205 207 184
3 183 207 206
3 185 208 204
3 186 209 185
3 185 209 208
3 187 210 186
3 186 210 209
3 191 189 211
3 189 188 211
3 211 188 192
3 199 190 212
3 212 190 191
3 212 191 211
3 213 199 212
3 214 211 192
3 214 192 193
3 215 214 193
3 215 193 195
3 206 216 194
3 216 197 194
3 216 217 197
3 215 195 218
3 218 195 196
3 198 218 196
3 217 219 197
3 219 218 198
3 197 219 198
3 220 199 213
3 221 200 199
3 220 221 199
3 222 201 200
3 221 222 200
3 203 204 223
3 203 223 202
3 202 223 205
3 204 208 224
3 204 224 223
3 205 223 225
3 205 225 207
3 207 225 226
3 207 226 206
3 226 216 206
3 208 228 224
3 224 228 227
3 209 229 208
3 229 228 208
3 210 230 209
3 209 230 229
3 213 212 231
3 212 211 231
3 231 211 214
3 232 220 213
3 232 213 231
3 233 231 214
3 233 214 215
3 234 233 215
3 234 215 218
3 226 235 216
3 235 217 216
3 235 236 217
3 217 236 219
3 237 234 218
3 237 218 219
3 236 238 219
3 238 237 219
3 240 220 232
3 239 240 232
3 241 221 220
3 240 241 220
3 242 222 221
3 241 242 221
3 224 227 243
3 224 243 223
3 223 243 225
3 225 243 244
3 225 244 226
3 226 244 235
3 227 245 243
3 228 246 227
3 227 246 245
3 229 247 228
3 228 247 246
3 230 248 229
3 229 248 247
3 239 232 249
3 232 231 249
3 249 231 233
3 250 249 233
3 250 233 234
3 237 250 234
3 244 251 235
3 235 251 236
3 251 252 236
3 236 252 238
3 252 253 238
3 253 250 237
3 253 237 238
3 254 239 249
3 255 240 239
3 254 255 239
3 256 241 240
3 255 256 240
3 257 242 241
3 256 257 241
3 245 258 243
3 243 258 244
3 244 258 251
3 245 259 258
3 246 260 245
3 245 260 259
3 247 261 246
3 246 261 260
3 248 262 247
3 247 262 261
3 254 249 263
3 263 249 250
3 253 263 250
3 258 264 251
3 251 264 252
3 264 265 252
3 265 263 253
3 252 265 253
3 266 254 263
3 267 255 254
3 266 267 254
3 268 256 255
3 267 268 255
3 269 257 256
3 268 269 256
3 259 270 258
3 270 264 258
3 260 271 259
3 259 271 270
3 261 272 260
3 260 272 271
3 262 273 261
3 273 272 261
3 270 274 264
3 275 266 263
3 275 263 265
3 274 276 264
3 276 265 264
3 276 277 265
3 277 275 265
3 278 267 266
3 275 278 266
3 279 268 267
3 278 279 267
3 280 269 268
3 279 280 268
3 271 281 270
3 270 281 274
3 272 282 271
3 271 282 281
3 273 283 272
3 272 283 282
3 281 284 274
3 274 284 276
3 285 278 275
3 277 285 275
3 284 286 276
3 286 285 277
3 276 286 277
3 287 279 278
3 285 287 278
3 288 280 279
3 287 288 279
3 282 289 281
3 281 289 284
3 283 290 282
3 282 290 289
3 289 291 284
3 284 291 286
3 291 292 286
3 292 287 285
3 286 292 285
3 293 288 287
3 292 293 287
3 290 294 289
3 289 294 291
3 294 295 291
3 295 293 292
3 291 295 292
CELL_TYPES 542
5
5
5
5
5
5
5
5
5
5
5
5
5
5
5
5
5
5
5
5
5
5
5
5
5
5
5
5
5
5
5
5
5
5
5
5
5
5
5
5
5
5
5
5
5
5
5
5
5
5
5
5
5
5
5
5
5
5
5
5
5
5
5
5
5
5
5
5
5
5
5
5
5
5
5
5
5
5
5
5
5
5
5
5
5
5
5
5
5
5
5
5
5
5
5
5
5
5
5
5
5
5
5
5
5
5
5
5
5
5
5
5
5
5
5
5
5
5
5
5
5
5
5
5
5
5
5
5
5
5
5
5
5
5
5
5
5
5
5
5
5
5
5
5
5
5
5
5
5
5
5
5
5
5
5
5
5
5
5
5
5
5
5
5
5
5
5
5
5
5
5
5
5
5
5
5
5
5
5
5
5
5
5
5
5
5
5
5
5
5
5
5
5
5
5
5
5
5
5
5
5
5
5
5
5
5
5
5
5
5
5
5
5
5
5
5
5
5
5
5
5
5
5
5
5
5
5
5
5
5
5
5
5
5
5
5
5
5
5
5
5
5
5
5
5
5
5
5
5
5
5
5
5
5
5
5
5
5
5
5
5
5
5
5
5
5
5
5
5
5
5
5
5
5
5
5
5
5
5
5
5
5
5
5
5
5
5
5
5
5
5
5
5
5
5
5
5
5
5
5
5
5
5
5
5
5
5
5
5
5
5
5
5
5
5
5
5
5
5
5
5
5
5
5
5
5
5
5
5
5
5
5
5
5
5
5
5
5
5
5
5
5
5
5
5
5
5
5
5
5
5
5
5
5
5
5
5
5
5
5
5
5
5
5
5
5
5
5
5
5
5
5
5
5
5
5
5
5
5
5
5
5
5
5
5
5
5
5
5
5
5
5
5
5
5
5
5
5
5
5
5
5
5
5
5
5
5
5
5
5
5
5
5
5
5
5
5
5
5
5
5
5
5
5
5
5
5
5
5
5
5
5
5
5
5
5
5
5
5
5
5
5
5
5
5
5
5
5
5
5
5
5
5
5
5
5
5
5
5
5
5
5
5
5
5
5
5
5
5
5
5
5
5
5
5
5
5
5
5
5
5
5
5
5
5
5
5
5
5
5
5
5
5
5
5
5
5
5
5
5
5
5
5
5
5
5
5
5
5
5
5
5
5
5
5
5
5
5
5
5
5
5
5
5
5
5
5
5
5
5
5
5
5
5
5
5
5
5
5
5
5
5
POINT_DATA 296
SCALARS concentrations float 4
LOOKUP_TABLE default
0 0.998421 0.0892504 3.03718
0 0.99842 0.0892299 3.02976
0 0.998422 0.0891725 3.01046
0 0.998424 0.0890965 2.98725
0 0.998431 0.0808996 0.00565881
0 0.99842 0.089186 3.01537
0 0.99842 0.0891482 3.00482
0 0.99843 0.0808995 0.00549937
0 0.998429 0.0808996 0.00541367
0 0.99842 0.0891426 3.00824
0 0.998419 0.0891723 3.02865
0 0.998427 0.0890074 2.96576
0 0.99843 0.0890944 2.80998
0 0.998432 0.0808984 0.00585562
0 0.998434 0.0808954 0.0061824
0 0.998451 0.0809041 0.00734299
0 0.99845 0.0809044 0.00715849
0 0.998429 0.0808986 0.00532314
0 0.998429 0.0808988 0.00541019
0 0.99845 0.0809051 0.00710339
0 0.998449 0.080905 0.00713686
0 0.998419 0.0892886 3.08961
0 0.998419 0.0893649 2.87948
0 0.998429 0.0808996 0.00584104
0 0.998428 0.0809021 0.00725864
0 0.998437 0.0808897 0.00749595
0 0.998427 0.0889675 2.95067
0 0.998437 0.0808905 0.00754262
0 0.998426 0.0890424 2.96647
0 0.998452 0.0809018 0.00763748
0 0.998454 0.0808965 0.00798525
0 0.99847 0.0808926 0.00748363
0 0.998419 0.0891357 3.03409
0 0.998472 0.0808899 0.00710093
0 0.998468 0.080896 0.00738469
0 0.998449 0.0809053 0.00734752
0 0.998448 0.0809063 0.00786322
0 0.998471 0.0808925 0.00725353
0 0.998467 0.0808985 0.0077625
0 0.998428 0.0809118 0.0130395
0 0.998428 0.0809147 0.0143646
0 0.998448 0.0809082 0.00911671
0 0.998448 0.0809115 0.0112881
0 0.99842 0.0890722 2.99399
0 0.998455 0.0808959 0.00845542
0 0.998435 0.0808958 0.00629699
0 0.998455 0.0808994 0.00831373
0 0.998425 0.0889812 2.93895
0 0.998434 0.0808962 0.00593891
0 0.998425 0.0889503 2.92517
0 0.998474 0.0808871 0.00747211
0 0.998471 0.0808893 0.00798274
0 0.998486 0.0808693 0.00573969
0 0.998429 0.0809043 0.00770288
0 0.99843 0.0809001 0.0060509
0 0.998485 0.0808715 0.00580902
0 0.99847 0.0808952 0.00803879
0 0.998467 0.0809004 0.0090264
0 0.998484 0.080874 0.00623632
0 0.998449 0.0809129 0.012331
0 0.998449 0.0809118 0.011485
0 0.99847 0.0808991 0.0101137
0 0.998467 0.0809048 0.0115394
0 0.998421 0.0889424 2.93859
0 0.998475 0.0808851 0.00762791
0 0.998454 0.0809018 0.00778188
0 0.998472 0.0808916 0.00790152
0 0.998434 0.0808956 0.00575171
0 0.998454 0.0809015 0.00743835
0 0.998425 0.0889372 2.91923
0 0.998434 0.0808952 0.00566482
0 0.998425 0.0889475 2.92257
0 0.998496 0.0808624 0.00514889
0 0.998487 0.080868 0.00584668
0 0.998497 0.0808616 0.00507344
0 0.99845 0.0809083 0.00913639
0 0.998431 0.0808975 0.00560858
0 0.99845 0.0809065 0.00820545
0 0.998496 0.0808639 0.00542355
0 0.998506 0.0808598 0.00497617
0 0.998484 0.0808758 0.00704066
0 0.998495 0.0808661 0.00595858
0 0.99847 0.0808971 0.0106741
0 0.998467 0.0808989 0.0100802
0 0.998484 0.0808777 0.00811999
0 0.998423 0.0889898 2.95322
0 0.998487 0.0808683 0.00576691
0 0.998475 0.080889 0.0073869
0 0.998453 0.0809029 0.00739916
0 0.998471 0.0808945 0.0075777
0 0.998434 0.080895 0.00560896
0 0.998453 0.0809032 0.00735603
0 0.998425 0.0889448 2.92171
0 0.998434 0.0808949 0.0055836
0 0.998508 0.0808565 0.00442589
0 0.998498 0.0808617 0.00508315
0 0.998507 0.0808575 0.00451443
0 0.998498 0.0808618 0.00501321
0 0.998426 0.089 2.94238
0 0.998432 0.0808965 0.00565127
0 0.99847 0.0808964 0.00924912
0 0.99845 0.0809022 0.00769129
0 0.998467 0.0808989 0.00882544
0 0.998514 0.0808505 0.00371359
0 0.998507 0.0808594 0.00515798
0 0.998495 0.0808675 0.00652738
0 0.998505 0.0808631 0.00595867
0 0.998485 0.0808779 0.00812049
0 0.998496 0.0808674 0.00678438
0 0.998423 0.0889386 2.93586
0 0.998488 0.08087 0.00572539
0 0.998475 0.0808918 0.00738267
0 0.998453 0.0809033 0.00733606
0 0.998471 0.0808976 0.00772729
0 0.998434 0.0808955 0.00561761
0 0.998453 0.0809031 0.00731051
0 0.998434 0.0808957 0.00564477
0 0.998519 0.0808457 0.00271346
0 0.998519 0.0808466 0.00321652
0 0.998514 0.0808483 0.00312427
0 0.998509 0.080856 0.00423713
0 0.998498 0.0808622 0.0050368
0 0.998508 0.0808586 0.00456938
0 0.998521 0.0808418 0.00184796
0 0.998426 0.0889764 2.93486
0 0.998433 0.0808966 0.00602334
0 0.998452 0.0809001 0.00788682
0 0.998485 0.0808803 0.00801739
0 0.998471 0.0808963 0.00881422
0 0.998514 0.0808523 0.0043909
0 0.998507 0.0808613 0.00597759
0 0.998497 0.0808675 0.00689377
0 0.998506 0.0808611 0.00607445
0 0.998433 0.0808979 0.0070758
0 0.998424 0.0889504 2.94661
0 0.998488 0.0808711 0.00583733
0 0.998474 0.080893 0.00747619
0 0.998453 0.0809033 0.00735992
0 0.998471 0.0808967 0.00768579
0 0.998435 0.0808961 0.00572846
0 0.998454 0.0809031 0.00739357
0 0.998499 0.0808628 0.00523181
0 0.998521 0.0808451 0.00336049
0 0.998523 0.0808378 0.00167569
0 0.998515 0.0808477 0.00298031
0 0.998509 0.080857 0.00440753
0 0.998508 0.0808604 0.00505582
0 0.998521 0.0808411 0.00192885
0 0.998524 0.0808318 0.000330564
0 0.998435 0.0808962 0.00584105
0 0.998426 0.0890385 2.95939
0 0.998497 0.0808681 0.00700696
0 0.998452 0.0809016 0.00873521
0 0.99847 0.0808988 0.00939214
0 0.998487 0.0808805 0.00812622
0 0.998452 0.0809061 0.0106994
0 0.998515 0.0808529 0.004835
0 0.998509 0.0808602 0.0060802
0 0.998521 0.0808462 0.00383782
0 0.998505 0.0808678 0.00726085
0 0.998433 0.0809021 0.0115233
0 0.998424 0.0889392 2.95699
0 0.998488 0.0808714 0.00599135
0 0.998475 0.0808922 0.00751442
0 0.998454 0.0809039 0.00764091
0 0.998471 0.0808969 0.0079029
0 0.998454 0.0809052 0.00799846
0 0.998498 0.0808642 0.00566938
0 0.998524 0.0808348 0.00193231
0 0.998516 0.0808484 0.00336434
0 0.99851 0.0808597 0.00527205
0 0.998522 0.0808407 0.00230317
0 0.998524 0.0808355 0.00190381
0 0.998435 0.080896 0.0060164
0 0.998426 0.0889272 2.92193
0 0.998496 0.08087 0.00740842
0 0.998471 0.0808956 0.00979591
0 0.998485 0.0808833 0.00874825
0 0.998452 0.0809083 0.0117631
0 0.99847 0.0808965 0.0105305
0 0.998517 0.0808509 0.00471628
0 0.998513 0.0808567 0.00578355
0 0.998521 0.0808453 0.00380378
0 0.998508 0.0808635 0.006716
0 0.998499 0.0808723 0.00789569
0 0.998452 0.0809074 0.0111067
0 0.998433 0.0809021 0.0120441
0 0.998424 0.0888438 2.69701
0 0.998488 0.080872 0.00636447
0 0.998475 0.0808924 0.00790664
0 0.998454 0.0809055 0.00861044
0 0.998472 0.0808976 0.00863834
0 0.998498 0.0808659 0.0062889
0 0.998508 0.0808632 0.0061467
0 0.998522 0.0808422 0.00320166
0 0.998516 0.0808505 0.00419437
0 0.998521 0.0808445 0.00328404
0 0.998521 0.0808456 0.00367679
0 0.998521 0.0808462 0.00370147
0 0.998454 0.080907 0.0098553
0 0.998435 0.0808964 0.00659784
0 0.998426 0.0889521 2.93613
0 0.998486 0.0808775 0.00831176
0 0.998473 0.0808946 0.0103581
0 0.99847 0.0809003 0.0102918
0 0.998496 0.0808719 0.00758471
0 0.998516 0.0808508 0.00463861
0 0.998507 0.080863 0.00651924
0 0.998452 0.0809049 0.00910564
0 0.998433 0.080898 0.00762671
0 0.998424 0.0888939 2.94005
0 0.998488 0.0808724 0.00688867
0 0.998475 0.080894 0.00915493
0 0.998472 0.0809035 0.0111709
0 0.998498 0.0808664 0.00671516
0 0.998509 0.0808617 0.00617266
0 0.998517 0.0808521 0.00466922
0 0.998516 0.0808566 0.0052777
0 0.998515 0.0808532 0.00487932
0 0.998515 0.0808551 0.00510202
0 0.998453 0.0809102 0.0120671
0 0.998435 0.0808966 0.00799578
0 0.998426 0.088839 2.90339
0 0.998486 0.0808772 0.00799616
0 0.998474 0.0808922 0.00862332
0 0.998498 0.0808673 0.00674634
0 0.998509 0.0808586 0.00558597
0 0.998472 0.0808951 0.0081047
0 0.998453 0.0809052 0.00815335
0 0.998434 0.0808971 0.00619503
0 0.998425 0.089032 2.97546
0 0.998488 0.0808735 0.00773512
0 0.998475 0.0808984 0.0113837
0 0.998498 0.0808659 0.0067918
0 0.998508 0.0808642 0.00662665
0 0.998509 0.0808607 0.00570843
0 0.998508 0.0808624 0.00597145
0 0.998509 0.0808627 0.00630019
0 0.998507 0.0808646 0.00635851
0 0.998472 0.0809022 0.0117742
0 0.998454 0.0809106 0.0126756
0 0.998435 0.0809027 0.0127934
0 0.998426 0.0887512 2.88665
0 0.998487 0.0808725 0.0067205
0 0.998499 0.0808636 0.00594193
0 0.998475 0.0808914 0.00763525
0 0.998454 0.0809048 0.00758715
0 0.998434 0.0808961 0.00567653
0 0.998425 0.0890374 2.96891
0 0.998488 0.0808737 0.0079397
0 0.998498 0.0808662 0.00671579
0 0.998499 0.0808625 0.00564423
0 0.998498 0.0808639 0.00589175
0 0.998498 0.0808651 0.00627632
0 0.998475 0.0808952 0.0101094
0 0.998454 0.0809085 0.0115394
0 0.998435 0.0809033 0.0123578
0 0.998426 0.0888553 2.69248
0 0.998488 0.0808726 0.00639245
0 0.998472 0.080896 0.00772393
0 0.998454 0.0809022 0.00725171
0 0.998435 0.0808946 0.00545817
0 0.998426 0.0889022 2.91452
0 0.998488 0.0808733 0.00717436
0 0.998488 0.0808716 0.00622005
0 0.998488 0.0808718 0.00644222
0 0.998472 0.0808983 0.0093684
0 0.998454 0.0809048 0.0093173
0 0.998435 0.080897 0.00739842
0 0.998427 0.0889285 2.95202
0 0.998475 0.080892 0.00750755
0 0.998454 0.0809014 0.00713081
0 0.998435 0.080894 0.00536953
0 0.998426 0.0888398 2.8889
0 0.998472 0.0808968 0.00780748
0 0.998475 0.0808931 0.00836322
0 0.998475 0.0808924 0.00767794
0 0.998472 0.0808972 0.00814732
0 0.998454 0.0809045 0.0083157
0 0.998436 0.0808943 0.00606198
0 0.998427 0.088869 2.91445
0 0.998454 0.0809027 0.00725921
0 0.998435 0.0808939 0.00537708
0 0.998427 0.0888949 2.90732
0 0.998454 0.0809032 0.00735675
0 0.998454 0.0809038 0.0078432
0 0.998454 0.0809032 0.00748242
0 0.998435 0.0808933 0.00572002
0 0.998427 0.0886595 2.82954
0 0.998436 0.0808941 0.00542101
0 0.998427 0.0888897 2.90476
0 0.998435 0.0808937 0.0054611
0 0.998436 0.0808936 0.00556777
0 0.998427 0.0887581 2.86093
0 0.998427 0.0889062 2.911
0 0.998427 0.0888485 2.89127
VECTORS fa_u float
0.00280469 0.00116541 0
0.00262184 0.00151836 0
0.00290721 0.000781674 0
0.00296146 0.000391667 0
-5.29373e-06 -1.99963e-06 0
0.0023895 0.00183922 0
0.00212131 0.00212814 0
-4.74342e-06 -2.78263e-06 0
-4.0899e-06 -3.5469e-06 0
0.00182748 0.00238952 0
0.0015107 0.00262498 0
0.00296576 2.73633e-07 0
0.00278594 -0.000366837 0
-5.76292e-06 -1.03777e-06 0
-6.18201e-06 6.97658e-08 0
-7.02574e-06 -2.13505e-06 0
-6.44947e-06 -3.10616e-06 0
-3.30287e-06 -4.17454e-06 0
-2.36951e-06 -4.8637e-06 0
-5.7364e-06 -4.1895e-06 0
-4.96913e-06 -5.12274e-06 0
0.00118266 0.00285429 0
0.000746067 0.00278115 0
-1.20468e-06 -5.71546e-06 0
4.34011e-07 -7.24565e-06 0
-7.34181e-06 1.51233e-06 0
0.00285007 -0.000763921 0
-7.53123e-06 4.14237e-07 0
0.00274012 -0.00113653 0
-7.59396e-06 -8.14238e-07 0
-7.98223e-06 2.19444e-07 0
-7.3075e-06 -1.61407e-06 0
0.000394765 0.0030083 0
-6.54635e-06 -2.75111e-06 0
-6.31302e-06 -3.83137e-06 0
-4.05289e-06 -6.12863e-06 0
-3.11084e-06 -7.2217e-06 0
-5.42204e-06 -4.81822e-06 0
-4.91878e-06 -6.00516e-06 0
1.76045e-06 -1.29201e-05 0
-7.25334e-06 -1.23988e-05 0
-2.01982e-06 -8.89015e-06 0
-1.63679e-06 -1.11688e-05 0
3.23117e-06 0.00299399 0
-8.38736e-06 1.07064e-06 0
-6.11193e-06 1.51536e-06 0
-8.12991e-06 1.73858e-06 0
0.00254432 -0.00147102 0
-5.39918e-06 2.47377e-06 0
0.00231936 -0.00178248 0
-7.45264e-06 -5.39006e-07 0
-7.97212e-06 4.11616e-07 0
-5.56682e-06 -1.39804e-06 0
-3.13997e-06 -7.03385e-06 0
-8.11947e-07 -5.99618e-06 0
-4.9092e-06 -3.10556e-06 0
-3.9954e-06 -6.97559e-06 0
-3.27367e-06 -8.41184e-06 0
-3.93682e-06 -4.83664e-06 0
-2.67411e-06 -1.20375e-05 0
-3.19421e-06 -1.10319e-05 0
-2.66752e-06 -9.75554e-06 0
-2.5288e-06 -1.12589e-05 0
-0.000380476 0.00291386 0
-7.51658e-06 1.29849e-06 0
-7.23987e-06 2.85342e-06 0
-7.50218e-06 2.48018e-06 0
-4.73686e-06 3.26255e-06 0
-6.45104e-06 3.70312e-06 0
0.00206248 -0.00206592 0
-4.0891e-06 3.92039e-06 0
0.00177719 -0.00232014 0
-4.68656e-06 -2.13241e-06 0
-5.83792e-06 3.19938e-07 0
-5.03584e-06 -6.1649e-07 0
-1.22095e-06 -9.05444e-06 0
7.38626e-07 -5.55973e-06 0
4.215e-07 -8.19461e-06 0
-3.97522e-06 -3.68951e-06 0
-4.07544e-06 -2.85535e-06 0
-2.86351e-06 -6.43204e-06 0
-3.161e-06 -5.05102e-06 0
-2.10738e-06 -1.0464e-05 0
-1.35192e-06 -9.98917e-06 0
-1.9188e-06 -7.89002e-06 0
-0.000762173 0.00285317 0
-5.42392e-06 1.95917e-06 0
-6.58377e-06 3.34965e-06 0
-5.7131e-06 4.70193e-06 0
-6.19892e-06 4.35832e-06 0
-3.3845e-06 4.47276e-06 0
-4.9471e-06 5.44403e-06 0
0.00145873 -0.00253149 0
-2.65019e-06 4.91458e-06 0
-4.18365e-06 -1.44416e-06 0
-4.97417e-06 1.04692e-06 0
-4.514e-06 6.18504e-08 0
-4.37606e-06 2.44589e-06 0
0.00112382 -0.0027193 0
2.14081e-06 -5.23008e-06 0
4.58647e-08 -9.249e-06 0
2.08649e-06 -7.40287e-06 0
1.58271e-06 -8.68236e-06 0
-2.92503e-06 -2.288e-06 0
-3.16885e-06 -4.06979e-06 0
-2.14195e-06 -6.16593e-06 0
-2.54788e-06 -5.38647e-06 0
-7.58694e-07 -8.08497e-06 0
-1.17153e-06 -6.68246e-06 0
-0.00112237 0.00271285 0
-4.54331e-06 3.48402e-06 0
-5.30252e-06 5.13684e-06 0
-4.01784e-06 6.13797e-06 0
-4.68324e-06 6.1464e-06 0
-1.86097e-06 5.30041e-06 0
-3.11511e-06 6.6136e-06 0
-1.02349e-06 5.55121e-06 0
-2.39937e-06 -1.26724e-06 0
-1.81439e-06 -2.65593e-06 0
-3.11993e-06 -1.64646e-07 0
-4.00887e-06 1.37193e-06 0
-3.33951e-06 3.77055e-06 0
-3.56846e-06 2.854e-06 0
-1.82617e-06 2.82914e-07 0
0.000757376 -0.00283545 0
3.59524e-06 -4.83269e-06 0
3.57437e-06 -7.03035e-06 0
1.17389e-06 -7.93098e-06 0
3.03728e-06 -8.27438e-06 0
-1.71846e-06 -4.04066e-06 0
-1.28488e-06 -5.83786e-06 0
2.79725e-07 -6.88809e-06 0
-2.98268e-07 -6.06712e-06 0
5.58265e-06 -4.34752e-06 0
-0.00147284 0.00255211 0
-3.29388e-06 4.81921e-06 0
-3.5897e-06 6.55801e-06 0
-2.0194e-06 7.07747e-06 0
-2.68678e-06 7.20088e-06 0
-9.40915e-08 5.72769e-06 0
-9.64264e-07 7.33042e-06 0
-2.0663e-06 4.80648e-06 0
-5.09354e-07 -3.32167e-06 0
-8.13257e-07 -1.46511e-06 0
-2.33658e-06 1.85004e-06 0
-2.38338e-06 3.70754e-06 0
-1.23637e-06 4.90232e-06 0
-8.59823e-07 1.7266e-06 0
1.56485e-07 2.91178e-07 0
8.76974e-07 5.77484e-06 0
0.000384039 -0.00293436 0
1.9449e-06 -6.73163e-06 0
5.35962e-06 -6.8977e-06 0
4.55673e-06 -8.2127e-06 0
2.99742e-06 -7.55321e-06 0
7.57668e-06 -7.55453e-06 0
-9.8161e-08 -4.83401e-06 0
1.17149e-06 -5.96628e-06 0
8.02558e-07 -3.75297e-06 0
2.79289e-06 -6.70221e-06 0
1.00918e-05 -5.56249e-06 0
-0.00179815 0.00234743 0
-1.67421e-06 5.75267e-06 0
-1.49566e-06 7.36407e-06 0
3.01253e-07 7.63497e-06 0
-4.21868e-07 7.89163e-06 0
1.53352e-06 7.85008e-06 0
-4.9125e-07 5.64805e-06 0
1.03356e-06 -1.63265e-06 0
-6.05039e-07 3.30948e-06 0
1.96956e-07 5.26837e-06 0
6.6083e-07 2.20633e-06 0
1.8481e-06 4.57172e-07 0
1.98696e-06 5.67882e-06 0
-2.21985e-06 -0.00292193 0
3.79556e-06 -6.36226e-06 0
5.88013e-06 -7.83479e-06 0
4.81638e-06 -7.30304e-06 0
8.20821e-06 -8.42583e-06 0
7.09523e-06 -7.78138e-06 0
1.57297e-06 -4.44624e-06 0
2.59384e-06 -5.16928e-06 0
2.2171e-06 -3.09082e-06 0
3.89561e-06 -5.47073e-06 0
5.05734e-06 -6.06344e-06 0
7.12374e-06 -8.52118e-06 0
5.44194e-06 -1.07445e-05 0
-0.00190606 0.00190809 0
9.22706e-08 6.3638e-06 0
7.87309e-07 7.86734e-06 0
3.12294e-06 8.02415e-06 0
2.17356e-06 8.36042e-06 0
1.08605e-06 6.19441e-06 0
1.75525e-06 5.89076e-06 0
2.84116e-06 -1.47596e-06 0
1.41807e-06 3.94738e-06 0
2.05596e-06 2.56085e-06 0
3.66844e-06 2.47633e-07 0
3.19238e-06 1.87338e-06 0
4.96757e-06 8.51177e-06 0
3.44378e-06 5.62777e-06 0
-0.00038534 -0.00291074 0
5.47472e-06 -6.25402e-06 0
7.26516e-06 -7.3829e-06 0
7.45675e-06 -7.0935e-06 0
5.54652e-06 -5.17339e-06 0
3.41895e-06 -3.13489e-06 0
4.96377e-06 -4.22629e-06 0
6.56721e-06 -6.3075e-06 0
4.01081e-06 -6.48692e-06 0
-0.00233244 0.00178986 0
1.90809e-06 6.61913e-06 0
3.46985e-06 8.47188e-06 0
5.47548e-06 9.737e-06 0
2.64637e-06 6.17171e-06 0
2.9783e-06 5.40661e-06 0
4.41756e-06 -1.5122e-06 0
5.27294e-06 2.24114e-07 0
3.31218e-06 3.58291e-06 0
4.64686e-06 2.10648e-06 0
6.94798e-06 9.86609e-06 0
5.60154e-06 5.70572e-06 0
-0.000752736 -0.00280412 0
6.09026e-06 -5.18143e-06 0
7.00217e-06 -5.03301e-06 0
5.76208e-06 -3.50877e-06 0
5.08744e-06 -2.30673e-06 0
7.29107e-06 -3.53927e-06 0
6.76561e-06 -4.55014e-06 0
4.43647e-06 -4.3239e-06 0
-0.00257553 0.00148997 0
3.61557e-06 6.83811e-06 0
5.81742e-06 9.78494e-06 0
3.73886e-06 5.67005e-06 0
4.22e-06 5.10922e-06 0
5.65991e-06 -7.42655e-07 0
5.87675e-06 1.05929e-06 0
4.95321e-06 3.89334e-06 0
5.78386e-06 2.64153e-06 0
6.30754e-06 9.94212e-06 0
6.38296e-06 1.09512e-05 0
9.54063e-06 8.52337e-06 0
-0.00110263 -0.00266776 0
6.05285e-06 -2.9203e-06 0
5.68743e-06 -1.72036e-06 0
7.35942e-06 -2.0337e-06 0
7.06733e-06 -2.76004e-06 0
4.88915e-06 -2.8843e-06 0
-0.00274185 0.00113871 0
4.70522e-06 6.39528e-06 0
4.68359e-06 4.8131e-06 0
5.64282e-06 1.25904e-07 0
5.58817e-06 1.86682e-06 0
5.22241e-06 3.48117e-06 0
6.02486e-06 8.1179e-06 0
5.46562e-06 1.0163e-05 0
2.64349e-06 1.20717e-05 0