# vtk DataFile Version 2.0
CellBP Time: 2.64
ASCII
DATASET UNSTRUCTURED_GRID
POINTS 296 double
-9.05689 -3.72218 0
-8.48681 -4.8788 0
-9.47198 -2.50141 0
-9.72377 -1.23675 0
-8.3579 -2.81881 0
-7.77058 -5.95103 0
-6.9205 -6.92051 0
-7.91755 -3.87487 0
-7.34297 -4.86805 0
-5.95121 -7.77089 0
-4.87891 -8.48701 0
-9.80855 0.0500145 0
-9.72421 1.33681 0
-8.65801 -1.684 0
-8.78665 -0.529643 0
-7.59003 -2.00422 0
-7.22607 -2.9066 0
-6.63795 -5.77915 0
-5.82268 -6.59722 0
-6.79059 -3.88908 0
-6.22088 -4.67614 0
-3.72237 -9.0571 0
-2.50105 -9.47071 0
-4.90671 -7.30916 0
-3.9132 -7.88662 0
-8.79311 0.643425 0
-9.47338 2.60177 0
-8.62364 1.77415 0
-9.05807 3.82268 0
-7.74464 -0.929021 0
-7.79487 0.0802608 0
-6.95287 -1.31594 0
-1.23665 -9.72363 0
-6.44178 -2.15322 0
-6.31968 -3.05627 0
-5.53681 -5.47484 0
-4.79615 -6.11578 0
-5.6593 -3.75719 0
-5.26966 -4.56181 0
-2.86631 -8.36434 0
-1.77865 -8.64066 0
-3.92834 -6.7239 0
-3.05677 -7.15298 0
0.050027 -9.80846 0
-7.70588 1.14357 0
-8.33897 2.91556 0
-7.55227 2.11207 0
-8.48821 4.97958 0
-7.88046 3.97843 0
-7.7718 6.05189 0
-6.77903 -0.396875 0
-6.95689 0.552575 0
-5.77168 -1.00345 0
-0.590863 -8.81017 0
0.565714 -8.77136 0
-5.30338 -2.48039 0
-4.4922 -5.09599 0
-3.9027 -5.77562 0
-4.43913 -3.80493 0
-2.06253 -7.56237 0
-1.13554 -7.78629 0
-2.9947 -6.10239 0
-2.30914 -6.62016 0
1.33688 -9.72491 0
-6.68982 1.42212 0
-7.17259 3.11829 0
-6.65963 2.37314 0
-7.29515 4.98895 0
-6.71848 4.0033 0
-6.92157 7.02156 0
-6.57289 5.89451 0
-5.9519 7.87186 0
-4.4533 -1.18111 0
-5.8149 0.513784 0
-4.65637 -0.0103782 0
0.00852013 -7.84859 0
1.73867 -8.64434 0
0.949023 -7.76394 0
-4.03869 -2.40649 0
-3.48569 -1.39125 0
-3.29467 -4.80559 0
-3.26601 -3.26793 0
-1.37866 -6.67587 0
-0.508772 -7.02539 0
-1.97566 -5.53733 0
2.6017 -9.47313 0
-5.50764 2.03704 0
-6.09511 3.07241 0
-6.10552 4.86998 0
-5.76213 3.99176 0
-5.76172 6.71764 0
-5.45254 5.6198 0
-4.87962 8.58841 0
-4.83884 7.40515 0
-3.50165 -0.424317 0
-4.44952 1.2491 0
-3.71164 0.592105 0
-4.06238 2.31994 0
-3.72279 9.15836 0
2.86282 -8.33349 0
0.419719 -6.79592 0
2.02218 -7.52644 0
1.30618 -6.9061 0
-2.44477 -0.873845 0
-2.8385 -2.13122 0
-2.29452 -4.09759 0
-2.32575 -2.97374 0
-0.442409 -5.86155 0
-1.22279 -4.49938 0
3.82294 -9.05874 0
-4.79012 3.39203 0
-5.08834 4.59452 0
-4.64758 6.28199 0
-4.53925 5.36019 0
-3.84408 7.99408 0
-3.82709 6.84635 0
-2.78356 8.42362 0
-1.64911 -0.137899 0
-1.45031 -0.890616 0
-2.48922 0.507285 0
-3.25378 1.44423 0
-3.23922 3.31676 0
-2.91112 2.37189 0
-1.35515 0.627135 0
-2.50171 9.57318 0
3.93306 -7.88771 0
2.96482 -7.15841 0
0.954164 -5.82246 0
2.07452 -6.41609 0
-1.68304 -1.99214 0
-1.4345 -3.27794 0
0.0902282 -4.74729 0
-0.566203 -3.69462 0
4.93263 -7.31952 0
4.97956 -8.48833 0
-3.77724 4.55198 0
-3.7351 5.75268 0
-2.88826 7.2906 0
-3.00999 6.35434 0
-1.66272 8.73455 0
-1.94031 7.62015 0
-2.33853 4.05195 0
-0.730757 -1.3273 0
-0.836925 -0.25763 0
-1.93629 1.68086 0
-2.12588 2.876 0
-1.30664 3.5449 0
-0.86949 1.35088 0
-0.282374 0.456066 0
-0.533575 8.87263 0
-1.23677 9.82441 0
1.11286 -4.57492 0
3.91055 -6.71803 0
2.98822 -6.09538 0
2.11805 -5.42543 0
4.78498 -6.20606 0
-0.558878 -2.47693 0
0.495141 -3.46403 0
0.0535564 -1.61054 0
1.48199 -3.68239 0
5.86785 -6.61544 0
6.05202 -7.77198 0
-2.4759 5.34896 0
-2.13067 6.53515 0
-0.904173 7.8042 0
-1.27249 6.93282 0
0.0862156 7.88132 0
-1.14454 4.49505 0
0.150327 -0.617668 0
-0.797462 2.48863 0
-0.331663 3.60096 0
0.0631133 1.51279 0
0.741469 0.473441 0
0.646862 8.87532 0
0.0500417 9.90929 0
2.38121 -4.28561 0
3.85962 -5.6411 0
3.00177 -5.21331 0
5.5745 -5.49254 0
4.69161 -5.28372 0
0.629707 -2.29347 0
1.25625 -2.95141 0
0.757528 -1.39151 0
2.1645 -3.13605 0
2.99404 -3.47689 0
6.15605 -4.79247 0
6.65651 -5.77011 0
7.0219 -6.92191 0
-1.01974 5.82096 0
-0.372661 6.88445 0
1.12279 7.77065 0
0.558049 7.08075 0
-0.000763126 4.7256 0
0.60705 3.82812 0
1.33898 -0.641924 0
0.539135 2.65121 0
0.966137 1.57502 0
1.9103 0.213879 0
1.61486 1.06509 0
2.12972 7.58474 0
1.79948 8.71371 0
1.33695 9.82513 0
3.82327 -4.35211 0
5.11731 -4.44966 0
5.84663 -3.93573 0
3.7844 -3.2014 0
1.8124 -1.88275 0
3.01943 -2.57413 0
6.78449 -3.94852 0
7.38266 -4.89759 0
7.87221 -5.95226 0
0.483417 5.88229 0
1.42839 6.74296 0
2.37473 6.67019 0
1.21011 4.55668 0
1.48832 3.39795 0
2.43599 -0.692073 0
2.8283 0.142616 0
1.78904 2.16302 0
2.61212 1.15025 0
3.07257 7.17141 0
2.90474 8.37833 0
2.6021 9.57427 0
4.91199 -3.32836 0
6.12175 -3.10921 0
4.17339 -2.27554 0
3.24478 -1.50306 0
6.73262 -2.31346 0
7.23347 -3.04312 0
7.96645 -3.913 0
8.58783 -4.87936 0
2.02393 5.60069 0
3.0871 6.1548 0
2.36422 4.12745 0
2.42036 3.06123 0
3.52609 -0.460912 0
3.61614 0.61336 0
2.96218 2.28835 0
3.54604 1.52546 0
4.0131 5.89947 0
3.98545 6.79485 0
3.97427 7.94064 0
3.82345 9.15997 0
5.56985 -1.91649 0
4.5099 -1.12977 0
6.71553 -1.33641 0
7.59445 -2.03691 0
8.39929 -2.86207 0
9.15823 -3.72271 0
3.41982 4.878 0
3.33954 3.38593 0
4.69204 0.130096 0
4.51994 1.31019 0
4.06602 2.44422 0
4.57189 5.15395 0
4.84518 6.19269 0
4.98194 7.38266 0
4.97993 8.58895 0
5.88486 -0.434995 0
7.01298 -0.48838 0
7.76195 -1.08561 0
8.68747 -1.74645 0
9.57358 -2.50178 0
4.55361 3.82855 0
5.8193 1.09887 0
5.3727 2.53561 0
5.38199 4.62222 0
5.61419 5.52554 0
5.89925 6.67423 0
6.05201 7.87196 0
6.84848 0.463695 0
7.85621 -0.0256459 0
8.86351 -0.584535 0
9.82557 -1.23695 0
6.96313 1.34995 0
5.72325 3.77987 0
6.54396 2.19833 0
6.38274 3.08921 0
6.29502 4.68889 0
6.6957 5.8401 0
7.02201 7.02192 0
7.78749 0.967995 0
8.86287 0.572968 0
9.90977 0.0500061 0
7.6194 2.00513 0
6.83212 3.90594 0
7.27268 2.94805 0
7.38135 4.88777 0
7.87333 6.05304 0
8.72647 1.72759 0
9.82529 1.33696 0
8.42439 2.83892 0
7.98489 3.9179 0
8.58945 4.98033 0
9.57364 2.60189 0
9.15933 3.82325 0
CELLS 542 2168
3 2 0 4
3 0 1 7
3 4 0 7
3 1 5 8
3 7 1 8
3 3 2 13
3 13 2 4
3 11 3 14
3 14 3 13
3 13 4 15
3 4 7 16
3 15 4 16
3 5 6 17
3 8 5 17
3 6 9 18
3 17 6 18
3 7 8 19
3 16 7 19
3 8 17 20
3 19 8 20
3 9 10 23
3 18 9 23
3 10 21 24
3 23 10 24
3 12 11 25
3 25 11 14
3 26 12 27
3 27 12 25
3 14 13 29
3 29 13 15
3 25 14 30
3 30 14 29
3 29 15 31
3 15 16 33
3 31 15 33
3 16 19 34
3 33 16 34
3 17 18 35
3 20 17 35
3 18 23 36
3 35 18 36
3 19 20 37
3 34 19 37
3 20 35 38
3 37 20 38
3 21 22 39
3 24 21 39
3 22 32 40
3 39 22 40
3 23 24 41
3 36 23 41
3 24 39 42
3 41 24 42
3 27 25 44
3 44 25 30
3 28 26 45
3 45 26 27
3 45 27 46
3 46 27 44
3 47 28 48
3 48 28 45
3 30 29 50
3 50 29 31
3 44 30 51
3 51 30 50
3 50 31 52
3 31 33 52
3 32 43 53
3 40 32 53
3 53 43 54
3 33 34 55
3 34 37 55
3 33 55 52
3 35 36 56
3 38 35 56
3 36 41 57
3 56 36 57
3 37 38 58
3 38 56 58
3 37 58 55
3 39 40 59
3 42 39 59
3 40 53 60
3 59 40 60
3 41 42 61
3 57 41 61
3 42 59 62
3 61 42 62
3 43 63 54
3 46 44 64
3 64 44 51
3 48 45 65
3 65 45 46
3 65 46 66
3 66 46 64
3 49 47 67
3 67 47 48
3 67 48 68
3 68 48 65
3 69 49 70
3 70 49 67
3 52 55 72
3 64 51 73
3 51 50 73
3 50 52 73
3 73 52 74
3 74 52 72
3 53 54 75
3 60 53 75
3 54 63 76
3 54 76 77
3 75 54 77
3 55 58 78
3 72 55 78
3 72 78 79
3 56 57 80
3 57 61 80
3 56 80 58
3 58 80 81
3 78 58 81
3 59 60 82
3 62 59 82
3 60 75 83
3 82 60 83
3 61 62 84
3 62 82 84
3 61 84 80
3 63 85 76
3 66 64 86
3 64 73 86
3 68 65 87
3 87 65 66
3 87 66 86
3 70 67 88
3 88 67 68
3 88 68 89
3 89 68 87
3 71 69 90
3 90 69 70
3 90 70 91
3 91 70 88
3 92 71 93
3 93 71 90
3 74 72 94
3 94 72 79
3 86 73 95
3 95 73 74
3 95 74 96
3 96 74 94
3 97 86 95
3 76 85 99
3 75 77 100
3 83 75 100
3 76 99 101
3 77 76 101
3 77 101 102
3 100 77 102
3 94 79 103
3 78 81 104
3 79 78 104
3 79 104 103
3 80 84 105
3 81 80 105
3 81 105 106
3 104 81 106
3 82 83 107
3 83 100 107
3 82 107 84
3 84 107 108
3 105 84 108
3 85 109 99
3 89 87 110
3 87 86 110
3 110 86 97
3 91 88 111
3 111 88 89
3 111 89 110
3 93 90 112
3 112 90 91
3 112 91 113
3 113 91 111
3 98 92 114
3 114 92 93
3 114 93 115
3 115 93 112
3 116 98 114
3 117 103 118
3 96 94 119
3 94 103 119
3 119 103 117
3 97 95 120
3 120 95 96
3 120 96 119
3 121 110 97
3 121 97 122
3 122 97 120
3 123 119 117
3 124 98 116
3 99 109 125
3 99 125 126
3 101 99 126
3 100 102 127
3 100 127 107
3 101 126 128
3 102 101 128
3 102 128 127
3 104 106 129
3 104 129 103
3 103 129 118
3 105 108 130
3 106 105 130
3 106 130 129
3 107 127 131
3 108 107 131
3 108 131 132
3 108 132 130
3 109 134 125
3 125 134 133
3 113 111 135
3 111 110 135
3 135 110 121
3 115 112 136
3 136 112 113
3 136 113 135
3 116 114 137
3 137 114 115
3 137 115 138
3 138 115 136
3 139 124 116
3 139 116 140
3 140 116 137
3 141 135 121
3 118 129 142
3 118 142 143
3 117 118 143
3 123 117 143
3 122 120 144
3 120 119 144
3 144 119 123
3 141 121 145
3 145 121 122
3 145 122 144
3 146 141 145
3 147 144 123
3 147 123 148
3 143 148 123
3 150 124 139
3 149 150 139
3 131 127 151
3 125 133 152
3 126 125 152
3 126 152 153
3 128 126 153
3 128 153 154
3 128 154 127
3 127 154 151
3 152 133 155
3 130 132 156
3 130 156 129
3 129 156 142
3 131 151 157
3 132 131 157
3 132 157 156
3 156 158 142
3 157 151 159
3 133 160 155
3 134 161 133
3 133 161 160
3 138 136 162
3 136 135 162
3 162 135 141
3 140 137 163
3 163 137 138
3 163 138 162
3 149 139 164
3 164 139 140
3 164 140 165
3 165 140 163
3 166 149 164
3 167 162 141
3 167 141 146
3 142 158 168
3 143 142 168
3 143 168 148
3 146 145 169
3 145 144 169
3 169 144 147
3 170 167 146
3 170 146 169
3 171 169 147
3 171 147 148
3 171 148 172
3 168 172 148
3 173 149 166
3 174 150 149
3 173 174 149
3 154 175 151
3 151 175 159
3 152 155 176
3 153 152 176
3 153 176 177
3 153 177 154
3 154 177 175
3 155 160 178
3 155 178 179
3 176 155 179
3 156 157 180
3 156 180 158
3 157 159 181
3 157 181 180
3 158 180 182
3 158 182 168
3 159 175 183
3 159 183 181
3 175 184 183
3 160 186 178
3 178 186 185
3 161 187 160
3 160 187 186
3 165 163 188
3 163 162 188
3 188 162 167
3 166 164 189
3 189 164 165
3 189 165 188
3 190 173 166
3 190 166 191
3 191 166 189
3 192 188 167
3 192 167 170
3 193 192 170
3 182 194 168
3 194 172 168
3 193 170 195
3 170 169 195
3 195 169 171
3 196 195 171
3 196 171 172
3 194 197 172
3 197 198 172
3 198 196 172
3 200 173 190
3 199 200 190
3 201 174 173
3 200 201 173
3 176 179 202
3 177 176 202
3 177 202 175
3 175 202 184
3 178 185 203
3 178 203 179
3 179 203 202
3 203 185 204
3 202 205 184
3 183 206 181
3 180 181 206
3 180 206 182
3 182 206 194
3 183 184 207
3 205 207 184
3 183 207 206
3 185 208 204
3 186 209 185
3 185 209 208
3 187 210 186
3 186 210 209
3 191 189 211
3 189 188 211
3 211 188 192
3 199 190 212
3 212 190 191
3 212 191 211
3 213 199 212
3 214 211 192
3 214 192 193
3 215 214 193
3 215 193 195
3 206 216 194
3 216 197 194
3 216 217 197
3 215 195 218
3 218 195 196
3 198 218 196
3 217 219 197
3 219 218 198
3 197 219 198
3 220 199 213
3 221 200 199
3 220 221 199
3 222 201 200
3 221 222 200
3 203 204 223
3 203 223 202
3 202 223 205
3 204 208 224
3 204 224 223
3 205 223 225
3 205 225 207
3 207 225 226
3 207 226 206
3 226 216 206
3 208 228 224
3 224 228 227
3 209 229 208
3 229 228 208
3 210 230 209
3 209 230 229
3 213 212 231
3 212 211 231
3 231 211 214
3 232 220 213
3 232 213 231
3 233 231 214
3 233 214 215
3 234 233 215
3 234 215 218
3 226 235 216
3 235 217 216
3 235 236 217
3 217 236 219
3 237 234 218
3 237 218 219
3 236 238 219
3 238 237 219
3 240 220 232
3 239 240 232
3 241 221 220
3 240 241 220
3 242 222 221
3 241 242 221
3 224 227 243
3 224 243 223
3 223 243 225
3 225 243 244
3 225 244 226
3 226 244 235
3 227 245 243
3 228 246 227
3 227 246 245
3 229 247 228
3 228 247 246
3 230 248 229
3 229 248 247
3 239 232 249
3 232 231 249
3 249 231 233
3 250 249 233
3 250 233 234
3 237 250 234
3 244 251 235
3 235 251 236
3 251 252 236
3 236 252 238
3 252 253 238
3 253 250 237
3 253 237 238
3 254 239 249
3 255 240 239
3 254 255 239
3 256 241 240
3 255 256 240
3 257 242 241
3 256 257 241
3 245 258 243
3 243 258 244
3 244 258 251
3 245 259 258
3 246 260 245
3 245 260 259
3 247 261 246
3 246 261 260
3 248 262 247
3 247 262 261
3 254 249 263
3 263 249 250
3 253 263 250
3 258 264 251
3 251 264 252
3 264 265 252
3 265 263 253
3 252 265 253
3 266 254 263
3 267 255 254
3 266 267 254
3 268 256 255
3 267 268 255
3 269 257 256
3 268 269 256
3 259 270 258
3 270 264 258
3 260 271 259
3 259 271 270
3 261 272 260
3 260 272 271
3 262 273 261
3 273 272 261
3 270 274 264
3 275 266 263
3 275 263 265
3 274 276 264
3 276 265 264
3 276 277 265
3 277 275 265
3 278 267 266
3 275 278 266
3 279 268 267
3 278 279 267
3 280 269 268
3 279 280 268
3 271 281 270
3 270 281 274
3 272 282 271
3 271 282 281
3 273 283 272
3 272 283 282
3 281 284 274
3 274 284 276
3 285 278 275
3 277 285 275
3 284 286 276
3 286 285 277
3 276 286 277
3 287 279 278
3 285 287 278
3 288 280 279
3 287 288 279
3 282 289 281
3 281 289 284
3 283 290 282
3 282 290 289
3 289 291 284
3 284 291 286
3 291 292 286
3 292 287 285
3 286 292 285
3 293 288 287
3 292 293 287
3 290 294 289
3 289 294 291
3 294 295 291
3 295 293 292
3 291 295 292
CELL_TYPES 542
5
5
5
5
5
5
5
5
5
5
5
5
5
5
5
5
5
5
5
5
5
5
5
5
5
5
5
5
5
5
5
5
5
5
5
5
5
5
5
5
5
5
5
5
5
5
5
5
5
5
5
5
5
5
5
5
5
5
5
5
5
5
5
5
5
5
5
5
5
5
5
5
5
5
5
5
5
5
5
5
5
5
5
5
5
5
5
5
5
5
5
5
5
5
5
5
5
5
5
5
5
5
5
5
5
5
5
5
5
5
5
5
5
5
5
5
5
5
5
5
5
5
5
5
5
5
5
5
5
5
5
5
5
5
5
5
5
5
5
5
5
5
5
5
5
5
5
5
5
5
5
5
5
5
5
5
5
5
5
5
5
5
5
5
5
5
5
5
5
5
5
5
5
5
5
5
5
5
5
5
5
5
5
5
5
5
5
5
5
5
5
5
5
5
5
5
5
5
5
5
5
5
5
5
5
5
5
5
5
5
5
5
5
5
5
5
5
5
5
5
5
5
5
5
5
5
5
5
5
5
5
5
5
5
5
5
5
5
5
5
5
5
5
5
5
5
5
5
5
5
5
5
5
5
5
5
5
5
5
5
5
5
5
5
5
5
5
5
5
5
5
5
5
5
5
5
5
5
5
5
5
5
5
5
5
5
5
5
5
5
5
5
5
5
5
5
5
5
5
5
5
5
5
5
5
5
5
5
5
5
5
5
5
5
5
5
5
5
5
5
5
5
5
5
5
5
5
5
5
5
5
5
5
5
5
5
5
5
5
5
5
5
5
5
5
5
5
5
5
5
5
5
5
5
5
5
5
5
5
5
5
5
5
5
5
5
5
5
5
5
5
5
5
5
5
5
5
5
5
5
5
5
5
5
5
5
5
5
5
5
5
5
5
5
5
5
5
5
5
5
5
5
5
5
5
5
5
5
5
5
5
5
5
5
5
5
5
5
5
5
5
5
5
5
5
5
5
5
5
5
5
5
5
5
5
5
5
5
5
5
5
5
5
5
5
5
5
5
5
5
5
5
5
5
5
5
5
5
5
5
5
5
5
5
5
5
5
5
5
5
5
5
5
5
5
5
5
5
5
5
5
5
5
5
5
5
5
5
5
5
5
5
5
5
5
5
5
5
5
5
5
5
5
5
5
5
5
5
5
5
5
5
5
5
5
5
5
5
5
5
5
5
5
5
5
5
5
5
5
5
5
5
5
5
5
5
5
5
5
5
5
5
POINT_DATA 296
SCALARS concentrations float 4
LOOKUP_TABLE default
0 0.971975 0.185662 12.0831
0 0.971974 0.185383 11.9236
0 0.971973 0.18477 11.7855
0 0.971974 0.184082 11.9145
0 0.971979 0.0909066 0.00542326
0 0.971973 0.184849 11.9816
0 0.971972 0.184312 12.0671
0 0.971979 0.0909063 0.00583255
0 0.971979 0.0909063 0.00549964
0 0.971975 0.184369 11.8545
0 0.971978 0.184616 12.031
0 0.971974 0.183138 11.8802
0 0.971974 0.183328 11.7794
0 0.971979 0.0909063 0.00534356
0 0.971979 0.0909053 0.0056248
0 0.971988 0.0909054 0.00528833
0 0.971988 0.0909052 0.00528947
0 0.971978 0.0909054 0.0049097
0 0.971979 0.0909057 0.00502814
0 0.971988 0.0909051 0.00529521
0 0.971988 0.0909048 0.00508916
0 0.971982 0.186006 11.6734
0 0.971984 0.186899 12.1902
0 0.971982 0.0909057 0.0056481
0 0.971985 0.0909067 0.0062926
0 0.971979 0.0909051 0.00527672
0 0.971974 0.182692 11.7513
0 0.971978 0.0909053 0.00536776
0 0.971973 0.183372 11.8127
0 0.971988 0.0909053 0.00532125
0 0.971988 0.0909043 0.00519345
0 0.971997 0.0909015 0.00460556
0 0.971984 0.184382 11.96
0 0.971998 0.0908999 0.00431577
0 0.971997 0.0909019 0.00467611
0 0.971988 0.0909047 0.00507679
0 0.971989 0.0909049 0.00535861
0 0.971998 0.0909002 0.00433742
0 0.971997 0.0909022 0.00469031
0 0.971987 0.0909071 0.00693207
0 0.971988 0.0909071 0.00780476
0 0.971991 0.0909051 0.00587311
0 0.971993 0.0909052 0.00628764
0 0.97198 0.183458 11.8249
0 0.971988 0.090905 0.00527398
0 0.971978 0.0909054 0.0054433
0 0.971988 0.0909056 0.00537088
0 0.971972 0.182543 11.5889
0 0.971978 0.0909052 0.00504415
0 0.971974 0.182205 11.6816
0 0.971998 0.0909002 0.00438156
0 0.971996 0.0909018 0.00468334
0 0.972004 0.0908924 0.00295659
0 0.971986 0.0909066 0.0076483
0 0.971983 0.0909058 0.00607516
0 0.972004 0.0908926 0.00300235
0 0.971999 0.0909007 0.00456799
0 0.971998 0.0909023 0.00516097
0 0.972005 0.0908931 0.00311745
0 0.971994 0.0909052 0.00670979
0 0.971994 0.090905 0.00679461
0 0.972001 0.0909012 0.00528852
0 0.972 0.0909028 0.00594334
0 0.971978 0.182083 11.6831
0 0.971998 0.0908999 0.00432128
0 0.971987 0.0909053 0.00523393
0 0.971996 0.090902 0.0046679
0 0.971978 0.0909049 0.00497722
0 0.971988 0.0909046 0.00506778
0 0.971976 0.181989 11.6623
0 0.971979 0.0909046 0.00525371
0 0.971978 0.182152 11.6785
0 0.972009 0.0908895 0.00246499
0 0.972004 0.0908925 0.00296765
0 0.972009 0.0908896 0.00244732
0 0.971993 0.0909051 0.00638553
0 0.971982 0.0909051 0.00554331
0 0.971991 0.090905 0.00583835
0 0.97201 0.0908897 0.00253414
0 0.972014 0.0908884 0.00230071
0 0.972006 0.0908933 0.00337596
0 0.97201 0.0908901 0.00270278
0 0.972002 0.0909 0.00546018
0 0.972 0.0909011 0.00561459
0 0.972007 0.0908934 0.00373485
0 0.971976 0.182558 11.6323
0 0.972004 0.0908922 0.00291687
0 0.971998 0.0909002 0.00433168
0 0.971988 0.0909049 0.00523592
0 0.971996 0.090902 0.00468598
0 0.971981 0.0909046 0.00580043
0 0.971989 0.0909049 0.00549428
0 0.971977 0.182005 11.6531
0 0.971982 0.0909044 0.00574394
0 0.972014 0.0908875 0.00210015
0 0.972009 0.0908897 0.00246806
0 0.972013 0.0908881 0.00219027
0 0.972009 0.0908895 0.00244627
0 0.971978 0.182643 11.8467
0 0.97198 0.0909046 0.00515835
0 0.972001 0.0909007 0.00523001
0 0.97199 0.0909036 0.00524408
0 0.971998 0.0909022 0.00517301
0 0.972017 0.0908849 0.00168665
0 0.972015 0.0908878 0.00227827
0 0.972011 0.0908902 0.00287197
0 0.972014 0.0908888 0.00256984
0 0.972007 0.0908936 0.00383717
0 0.972011 0.09089 0.00295175
0 0.971975 0.181942 11.7459
0 0.972004 0.0908923 0.00297906
0 0.971998 0.0909006 0.00457436
0 0.97199 0.0909047 0.00564639
0 0.971997 0.0909027 0.00513049
0 0.971982 0.0909043 0.00572845
0 0.97199 0.0909045 0.00566002
0 0.971981 0.0909044 0.00572023
0 0.972019 0.0908834 0.00141355
0 0.97202 0.0908833 0.00147413
0 0.972017 0.0908845 0.00154523
0 0.972014 0.0908875 0.00207842
0 0.972009 0.0908893 0.0024677
0 0.972013 0.0908884 0.00225459
0 0.97202 0.0908822 0.00113404
0 0.971976 0.182358 11.6715
0 0.97198 0.0909043 0.0051256
0 0.971989 0.0909027 0.00494058
0 0.972006 0.0908949 0.00385517
0 0.971999 0.0909013 0.00482435
0 0.972018 0.090885 0.00182841
0 0.972015 0.0908879 0.00248274
0 0.972011 0.09089 0.00295247
0 0.972015 0.0908878 0.00249286
0 0.97198 0.0909047 0.00524625
0 0.971975 0.182091 11.7154
0 0.972005 0.0908924 0.00310543
0 0.971999 0.0909007 0.00482694
0 0.97199 0.0909043 0.00558845
0 0.971998 0.0909019 0.00510037
0 0.97198 0.0909046 0.00537039
0 0.971989 0.0909042 0.00544432
0 0.972009 0.0908893 0.00249312
0 0.97202 0.0908823 0.00136553
0 0.972021 0.0908802 0.000883773
0 0.972017 0.0908843 0.00149413
0 0.972014 0.0908875 0.00211454
0 0.972014 0.0908884 0.00231417
0 0.97202 0.0908817 0.00102255
0 0.972021 0.0908783 0.000370411
0 0.971979 0.0909044 0.0052953
0 0.971975 0.182985 11.7393
0 0.972011 0.0908904 0.00289735
0 0.971989 0.0909031 0.0049758
0 0.971998 0.0909022 0.00489565
0 0.972006 0.0908951 0.00371061
0 0.971988 0.0909044 0.00521876
0 0.972018 0.0908849 0.00189506
0 0.972016 0.0908875 0.00238729
0 0.97202 0.0908825 0.00141883
0 0.972014 0.0908904 0.00286458
0 0.971979 0.0909046 0.00530833
0 0.971975 0.182047 11.6095
0 0.972005 0.0908922 0.00311552
0 0.971999 0.0909001 0.00466269
0 0.971988 0.0909044 0.00531934
0 0.971997 0.0909018 0.00489536
0 0.971988 0.0909048 0.00529097
0 0.972009 0.0908895 0.00252571
0 0.972021 0.0908784 0.000558056
0 0.972017 0.0908841 0.00146637
0 0.972014 0.0908879 0.00219709
0 0.97202 0.0908812 0.000881326
0 0.972021 0.0908789 0.00039381
0 0.971978 0.0909043 0.00507397
0 0.971973 0.181767 11.8276
0 0.972009 0.0908912 0.00290925
0 0.971998 0.0909007 0.00458194
0 0.972004 0.0908962 0.00377194
0 0.971988 0.090905 0.00535588
0 0.971997 0.0909009 0.00458884
0 0.972019 0.0908842 0.00170453
0 0.972017 0.0908863 0.00204956
0 0.97202 0.0908823 0.00125618
0 0.972014 0.0908889 0.00246938
0 0.97201 0.0908922 0.00303954
0 0.971988 0.0909048 0.00532328
0 0.971979 0.0909044 0.00525962
0 0.971975 0.181051 11.64
0 0.972004 0.0908922 0.00305031
0 0.971998 0.0908999 0.00444834
0 0.971987 0.0909047 0.00521923
0 0.971996 0.0909017 0.00471815
0 0.972009 0.0908899 0.00256391
0 0.972013 0.090889 0.00235778
0 0.97202 0.0908813 0.000947368
0 0.972017 0.0908844 0.00150296
0 0.972019 0.0908823 0.00105581
0 0.972019 0.0908826 0.00110765
0 0.972019 0.0908829 0.00114221
0 0.971988 0.0909047 0.0052705
0 0.971979 0.0909042 0.00509615
0 0.971974 0.182036 11.4473
0 0.972004 0.090894 0.00332885
0 0.971998 0.0909003 0.00447402
0 0.971996 0.0909027 0.00491775
0 0.972008 0.0908921 0.00297075
0 0.972017 0.0908844 0.0015595
0 0.972014 0.0908889 0.00236239
0 0.971988 0.0909045 0.00526736
0 0.971979 0.0909046 0.00532314
0 0.971975 0.181495 11.4774
0 0.972004 0.0908921 0.00295671
0 0.971998 0.0909001 0.00440084
0 0.971996 0.0909032 0.00497654
0 0.972008 0.0908899 0.00252112
0 0.972013 0.0908883 0.00220361
0 0.972018 0.0908851 0.00160613
0 0.972017 0.0908868 0.00188255
0 0.972016 0.0908853 0.00162032
0 0.972016 0.0908862 0.00174993
0 0.971987 0.0909051 0.00535482
0 0.971979 0.0909033 0.00513142
0 0.971974 0.180723 11.6248
0 0.972003 0.090894 0.00330624
0 0.971998 0.0908999 0.00438754
0 0.972009 0.0908905 0.00264021
0 0.972014 0.0908875 0.00204985
0 0.971996 0.0909013 0.00460245
0 0.971988 0.090905 0.0053309
0 0.971979 0.0909047 0.00537811
0 0.971975 0.183026 11.8266
0 0.972004 0.0908922 0.00294198
0 0.971997 0.090901 0.00456008
0 0.972008 0.0908897 0.00245791
0 0.972013 0.0908893 0.00235699
0 0.972013 0.0908884 0.00218504
0 0.972013 0.090889 0.0022889
0 0.972013 0.0908888 0.00226082
0 0.972012 0.0908897 0.002414
0 0.971996 0.0909024 0.00479433
0 0.971987 0.0909051 0.00532399
0 0.971979 0.0909034 0.00509158
0 0.971974 0.179801 11.4571
0 0.972004 0.0908926 0.00300993
0 0.972009 0.0908893 0.00239648
0 0.971997 0.0909001 0.00434789
0 0.971988 0.0909052 0.00529977
0 0.971979 0.0909046 0.00523561
0 0.971974 0.183048 11.7913
0 0.972003 0.0908923 0.00293464
0 0.972008 0.0908899 0.00248627
0 0.972009 0.090889 0.00231488
0 0.972008 0.0908895 0.00239213
0 0.972008 0.0908898 0.00244506
0 0.971997 0.0909004 0.00438069
0 0.971987 0.0909046 0.00518661
0 0.971978 0.090904 0.00512335
0 0.971974 0.181028 11.4943
0 0.972004 0.0908928 0.00301914
0 0.971996 0.090902 0.00468638
0 0.971987 0.0909043 0.00512531
0 0.971978 0.0909042 0.00514715
0 0.971974 0.181569 11.6274
0 0.972003 0.0908926 0.00296846
0 0.972003 0.0908925 0.00294005
0 0.972003 0.0908924 0.00293348
0 0.971995 0.0909021 0.00468833
0 0.971987 0.0909042 0.00508267
0 0.971978 0.0909039 0.00502075
0 0.971973 0.181759 11.6841
0 0.971997 0.0909004 0.00439509
0 0.971987 0.0909041 0.00508042
0 0.971978 0.090904 0.00510676
0 0.971974 0.180901 11.5745
0 0.971996 0.0909023 0.00473225
0 0.971997 0.0909005 0.00440394
0 0.971997 0.0909005 0.00440973
0 0.971995 0.0909023 0.00474676
0 0.971987 0.0909048 0.00520661
0 0.971978 0.0909035 0.00494173
0 0.971973 0.181061 11.5637
0 0.971987 0.0909046 0.00517238
0 0.971978 0.090904 0.00514421
0 0.971974 0.181451 11.6163
0 0.971987 0.0909048 0.00518969
0 0.971987 0.0909048 0.00523657
0 0.971987 0.0909047 0.00520555
0 0.971978 0.0909035 0.00509217
0 0.971973 0.178796 11.4219
0 0.971978 0.0909041 0.00510162
0 0.971974 0.181409 11.6187
0 0.971978 0.0909039 0.00502716
0 0.971978 0.0909037 0.00513145
0 0.971974 0.179865 11.4283
0 0.971973 0.181528 11.6082
0 0.971973 0.180913 11.5812
VECTORS fa_u float
0.0111522 0.00465066 0
0.0103403 0.00593731 0
0.0113861 0.00304242 0
0.0118153 0.00153468 0
4.91546e-06 2.29128e-06 0
0.00952926 0.00726301 0
0.00852627 0.00853923 0
5.23615e-06 2.56932e-06 0
4.6621e-06 2.91734e-06 0
0.00720298 0.00941516 0
0.00600615 0.0104246 0
0.0118802 2.51701e-05 0
0.0116782 -0.00154075 0
5.30868e-06 6.09531e-07 0
5.59146e-06 6.11505e-07 0
5.06737e-06 1.51266e-06 0
4.83897e-06 2.13609e-06 0
3.78039e-06 3.13271e-06 0
2.58192e-06 4.31461e-06 0
4.53794e-06 2.7288e-06 0
3.96031e-06 3.19616e-06 0
0.00445003 0.0107919 0
0.00316205 0.011773 0
2.50177e-06 5.06381e-06 0
1.78256e-06 6.03485e-06 0
5.26587e-06 -3.38185e-07 0
0.0113504 -0.00304352 0
5.25836e-06 -1.0782e-06 0
0.0109221 -0.00449974 0
5.29149e-06 5.61994e-07 0
5.1927e-06 8.84347e-08 0
4.51687e-06 8.99489e-07 0
0.00158405 0.0118546 0
4.03741e-06 1.52486e-06 0
4.15868e-06 2.13808e-06 0
3.27771e-06 3.87691e-06 0
2.72865e-06 4.61185e-06 0
3.49241e-06 2.57221e-06 0
3.33755e-06 3.29541e-06 0
1.91328e-06 6.66281e-06 0
1.09859e-06 7.72705e-06 0
2.24303e-06 5.42792e-06 0
1.97086e-06 5.97077e-06 0
6.85469e-06 0.0118249 0
5.23263e-06 -6.59103e-07 0
5.17333e-06 -1.69297e-06 0
5.20785e-06 -1.31325e-06 0
0.0100422 -0.00578426 0
4.61909e-06 -2.02667e-06 0
0.00926411 -0.00711586 0
4.37433e-06 2.516e-07 0
4.67932e-06 -1.9398e-07 0
2.8939e-06 6.05628e-07 0
1.79498e-06 7.43468e-06 0
5.07359e-07 6.05394e-06 0
2.66228e-06 1.38794e-06 0
2.67956e-06 3.69953e-06 0
2.40133e-06 4.56828e-06 0
2.21689e-06 2.19178e-06 0
1.58816e-06 6.51913e-06 0
1.23623e-06 6.6812e-06 0
1.96282e-06 4.91078e-06 0
1.72133e-06 5.68861e-06 0
-0.00152779 0.0115827 0
4.25814e-06 -7.36005e-07 0
4.82024e-06 -2.03945e-06 0
4.40731e-06 -1.53783e-06 0
3.9058e-06 -3.08503e-06 0
4.35173e-06 -2.59708e-06 0
0.00823259 -0.00826038 0
3.69219e-06 -3.73754e-06 0
0.00711395 -0.00926171 0
2.32031e-06 8.32071e-07 0
2.96144e-06 -1.91972e-07 0
2.43932e-06 1.97752e-07 0
5.5834e-07 6.36107e-06 0
-2.91866e-07 5.53562e-06 0
-6.32878e-08 5.83801e-06 0
2.04297e-06 1.49938e-06 0
2.03001e-06 1.08274e-06 0
1.71051e-06 2.91054e-06 0
1.70699e-06 2.09552e-06 0
1.14914e-06 5.33789e-06 0
6.4034e-07 5.57795e-06 0
1.16855e-06 3.54734e-06 0
-0.00300377 0.0112378 0
2.74918e-06 -9.74757e-07 0
3.84511e-06 -1.99464e-06 0
3.96401e-06 -3.42074e-06 0
3.83728e-06 -2.68955e-06 0
3.33206e-06 -4.74788e-06 0
3.6623e-06 -4.09569e-06 0
0.00584358 -0.0100821 0
3.39508e-06 -4.63318e-06 0
2.03623e-06 5.142e-07 0
2.41248e-06 -5.20819e-07 0
2.18811e-06 -9.72861e-08 0
2.1675e-06 -1.1341e-06 0
0.00452993 -0.0109465 0
-1.10384e-06 5.03886e-06 0
1.33771e-07 5.2283e-06 0
-8.79634e-07 5.16978e-06 0
-5.75346e-07 5.14091e-06 0
1.48202e-06 8.05237e-07 0
1.64604e-06 1.57514e-06 0
1.2659e-06 2.57792e-06 0
1.41744e-06 2.14358e-06 0
5.47368e-07 3.79793e-06 0
7.94478e-07 2.84282e-06 0
-0.00450049 0.0108495 0
2.42142e-06 -1.73537e-06 0
3.3333e-06 -3.13271e-06 0
3.28865e-06 -4.58983e-06 0
3.23611e-06 -3.98114e-06 0
2.36112e-06 -5.21922e-06 0
2.86354e-06 -4.88221e-06 0
2.18853e-06 -5.28502e-06 0
1.35168e-06 4.13617e-07 0
1.12823e-06 9.48766e-07 0
1.54514e-06 1.57822e-08 0
1.97849e-06 -6.36708e-07 0
1.78769e-06 -1.70108e-06 0
1.85714e-06 -1.27836e-06 0
1.12153e-06 -1.67964e-07 0
0.00302223 -0.0112734 0
-2.10522e-06 4.67331e-06 0
-1.50902e-06 4.70448e-06 0
-2.40333e-07 3.84767e-06 0
-1.17808e-06 4.6783e-06 0
1.04417e-06 1.50093e-06 0
8.71698e-07 2.32469e-06 0
1.99268e-07 2.94574e-06 0
4.3024e-07 2.45545e-06 0
-2.82052e-06 4.42355e-06 0
-0.00587267 0.0101372 0
1.95965e-06 -2.40904e-06 0
2.6281e-06 -4.04876e-06 0
2.20623e-06 -5.13453e-06 0
2.28245e-06 -4.56117e-06 0
1.19749e-06 -5.23518e-06 0
1.60215e-06 -5.20325e-06 0
1.30143e-06 -2.12648e-06 0
5.93838e-07 1.22965e-06 0
7.30999e-07 4.96683e-07 0
1.28364e-06 -7.64639e-07 0
1.38252e-06 -1.59997e-06 0
9.52671e-07 -2.10898e-06 0
7.30321e-07 -7.15708e-07 0
3.26331e-07 -1.75249e-07 0
5.90056e-07 -5.26232e-06 0
0.00155187 -0.0116363 0
-4.54932e-07 2.86141e-06 0
-2.23187e-06 4.44717e-06 0
-1.74481e-06 4.57417e-06 0
-9.36328e-07 3.59053e-06 0
-2.99672e-06 4.27261e-06 0
3.89211e-07 1.85466e-06 0
-9.14763e-08 2.38554e-06 0
8.68021e-08 1.41618e-06 0
-7.47349e-07 2.76537e-06 0
-3.45725e-06 4.02812e-06 0
-0.00707006 0.00920835 0
1.30571e-06 -2.82871e-06 0
1.57047e-06 -4.39025e-06 0
8.15664e-07 -5.25643e-06 0
1.0708e-06 -4.77681e-06 0
1.25912e-07 -5.28947e-06 0
7.1519e-07 -2.42234e-06 0
-3.47852e-08 5.56971e-07 0
6.42474e-07 -1.31814e-06 0
4.1858e-07 -2.15684e-06 0
1.48581e-07 -8.68711e-07 0
-3.45922e-07 -1.88214e-07 0
-3.31371e-07 -5.06314e-06 0
2.06315e-06 -0.0118276 0
-1.24457e-06 2.6296e-06 0
-2.25618e-06 3.98796e-06 0
-1.75307e-06 3.33981e-06 0
-3.78242e-06 3.79193e-06 0
-2.89191e-06 3.56291e-06 0
-2.42179e-07 1.68724e-06 0
-6.41238e-07 1.94667e-06 0
-5.45655e-07 1.13148e-06 0
-1.26812e-06 2.1189e-06 0
-1.81996e-06 2.43446e-06 0
-4.04835e-06 3.45662e-06 0
-3.87272e-06 3.55889e-06 0
-0.00823286 0.00822852 0
5.81602e-07 -2.99435e-06 0
4.24393e-07 -4.42805e-06 0
-7.29243e-07 -5.16803e-06 0
-2.81162e-07 -4.70976e-06 0
1.25805e-07 -2.56082e-06 0
-2.11267e-07 -2.34829e-06 0
-7.88504e-07 5.25135e-07 0
-1.29597e-07 -1.49736e-06 0
-4.02647e-07 -9.76013e-07 0
-1.10532e-06 -7.17749e-08 0
-9.07756e-07 -6.93274e-07 0
-1.46119e-06 -5.0639e-06 0
-1.06364e-06 -4.98392e-06 0
-0.00151567 -0.0113465 0
-2.09015e-06 2.59085e-06 0
-3.26298e-06 3.06102e-06 0
-3.90026e-06 2.99537e-06 0
-2.16345e-06 2.03589e-06 0
-1.07775e-06 1.12717e-06 0
-1.78453e-06 1.54801e-06 0
-4.41226e-06 2.87698e-06 0
-4.25136e-06 3.20339e-06 0
-0.00910989 0.00698142 0
-2.03137e-07 -2.94973e-06 0
-8.47122e-07 -4.31854e-06 0
-1.66293e-06 -4.69048e-06 0
-5.68204e-07 -2.45625e-06 0
-7.69639e-07 -2.06484e-06 0
-1.49714e-06 5.81596e-07 0
-1.88167e-06 -5.72861e-08 0
-9.45351e-07 -1.31596e-06 0
-1.57474e-06 -7.63188e-07 0
-2.08102e-06 -4.93391e-06 0
-1.80322e-06 -4.80415e-06 0
-0.00300638 -0.0112294 0
-2.61571e-06 2.0222e-06 0
-3.80076e-06 2.19196e-06 0
-2.30296e-06 1.29116e-06 0
-1.87842e-06 8.20615e-07 0
-4.30247e-06 1.63441e-06 0
-4.79297e-06 2.33365e-06 0
-4.67683e-06 2.65544e-06 0
-0.0102434 0.00591106 0
-9.62551e-07 -2.78007e-06 0
-1.94821e-06 -4.12297e-06 0
-1.14089e-06 -2.17708e-06 0
-1.36872e-06 -1.91886e-06 0
-2.16557e-06 2.91045e-07 0
-2.25986e-06 -3.63485e-07 0
-1.75666e-06 -1.42319e-06 0
-2.21746e-06 -9.54086e-07 0
-2.66307e-06 -3.98669e-06 0
-2.48466e-06 -4.70865e-06 0
-2.14677e-06 -4.61688e-06 0
-0.00439379 -0.0105811 0
-2.78368e-06 1.1449e-06 0
-2.31123e-06 6.33508e-07 0
-4.25792e-06 8.79916e-07 0
-5.10594e-06 1.42018e-06 0
-4.88609e-06 1.88089e-06 0
-0.0108907 0.00451964 0
-1.69233e-06 -2.39752e-06 0
-1.71896e-06 -1.79631e-06 0
-2.3145e-06 -4.19257e-08 0
-2.29186e-06 -6.85319e-07 0
-2.08291e-06 -1.28055e-06 0
-2.92275e-06 -3.26313e-06 0
-3.14948e-06 -4.12088e-06 0
-2.73059e-06 -4.33504e-06 0
-0.00574529 -0.00995539 0
-2.99874e-06 3.50406e-07 0