# vtk DataFile Version 2.0
CellBP Time: 2.56
ASCII
DATASET UNSTRUCTURED_GRID
POINTS 296 double
-9.06082 -3.72384 0
-8.49033 -4.88079 0
-9.47555 -2.50235 0
-9.728 -1.23733 0
-8.35791 -2.81882 0
-7.77387 -5.95345 0
-6.9233 -6.92335 0
-7.91755 -3.87487 0
-7.34298 -4.86805 0
-5.95367 -7.77414 0
-4.88093 -8.49061 0
-9.81265 0.0499918 0
-9.7282 1.33735 0
-8.65802 -1.684 0
-8.78666 -0.529644 0
-7.59003 -2.00422 0
-7.22607 -2.9066 0
-6.63795 -5.77915 0
-5.82268 -6.59722 0
-6.79059 -3.88909 0
-6.22088 -4.67614 0
-3.72385 -9.06074 0
-2.50219 -9.47475 0
-4.90671 -7.30917 0
-3.9132 -7.88662 0
-8.79312 0.643425 0
-9.47734 2.60283 0
-8.62364 1.77416 0
-9.06187 3.82423 0
-7.74464 -0.929021 0
-7.79487 0.0802608 0
-6.95288 -1.31594 0
-1.23725 -9.72802 0
-6.44178 -2.15322 0
-6.31968 -3.05627 0
-5.53681 -5.47484 0
-4.79615 -6.11579 0
-5.65931 -3.75719 0
-5.26966 -4.56181 0
-2.86631 -8.36435 0
-1.77865 -8.64067 0
-3.92834 -6.7239 0
-3.05677 -7.15298 0
0.0500336 -9.8125 0
-7.70588 1.14357 0
-8.33898 2.91556 0
-7.55228 2.11207 0
-8.49143 4.98142 0
-7.88046 3.97843 0
-7.77501 6.05436 0
-6.77903 -0.396875 0
-6.95689 0.552575 0
-5.77168 -1.00345 0
-0.590866 -8.81018 0
0.565713 -8.77137 0
-5.30338 -2.48039 0
-4.4922 -5.096 0
-3.9027 -5.77563 0
-4.43913 -3.80494 0
-2.06253 -7.56237 0
-1.13554 -7.78629 0
-2.99471 -6.1024 0
-2.30915 -6.62016 0
1.33744 -9.72894 0
-6.68982 1.42212 0
-7.17259 3.11829 0
-6.65963 2.37314 0
-7.29515 4.98895 0
-6.71849 4.0033 0
-6.92438 7.0244 0
-6.5729 5.89452 0
-5.95451 7.87525 0
-4.45331 -1.18111 0
-5.8149 0.513785 0
-4.65637 -0.0103783 0
0.00851931 -7.84859 0
1.73867 -8.64435 0
0.949023 -7.76394 0
-4.03869 -2.40649 0
-3.48569 -1.39125 0
-3.29468 -4.80559 0
-3.26602 -3.26793 0
-1.37866 -6.67587 0
-0.508773 -7.02539 0
-1.97566 -5.53734 0
2.6027 -9.47695 0
-5.50764 2.03704 0
-6.09511 3.07241 0
-6.10553 4.86998 0
-5.76213 3.99176 0
-5.76173 6.71764 0
-5.45255 5.6198 0
-4.88163 8.59182 0
-4.83885 7.40516 0
-3.50165 -0.424317 0
-4.44953 1.2491 0
-3.71164 0.592105 0
-4.06238 2.31994 0
-3.72444 9.16237 0
2.86282 -8.33349 0
0.419719 -6.79593 0
2.02218 -7.52644 0
1.30619 -6.90611 0
-2.44477 -0.873845 0
-2.8385 -2.13122 0
-2.29452 -4.09759 0
-2.32575 -2.97374 0
-0.442409 -5.86155 0
-1.22279 -4.49938 0
3.82448 -9.06249 0
-4.79012 3.39203 0
-5.08835 4.59452 0
-4.64758 6.282 0
-4.53926 5.36019 0
-3.84408 7.99409 0
-3.8271 6.84635 0
-2.78357 8.42363 0
-1.64911 -0.137899 0
-1.45031 -0.890617 0
-2.48922 0.507285 0
-3.25378 1.44423 0
-3.23922 3.31676 0
-2.91113 2.37189 0
-1.35515 0.627135 0
-2.50273 9.57705 0
3.93306 -7.88771 0
2.96482 -7.15842 0
0.954164 -5.82247 0
2.07452 -6.41609 0
-1.68304 -1.99214 0
-1.4345 -3.27794 0
0.0902279 -4.74729 0
-0.566203 -3.69462 0
4.93263 -7.31952 0
4.98165 -8.49184 0
-3.77725 4.55198 0
-3.73511 5.75268 0
-2.88826 7.2906 0
-3.00999 6.35435 0
-1.66272 8.73455 0
-1.94031 7.62015 0
-2.33853 4.05195 0
-0.730757 -1.3273 0
-0.836925 -0.25763 0
-1.93629 1.68086 0
-2.12588 2.876 0
-1.30664 3.5449 0
-0.869491 1.35089 0
-0.282374 0.456066 0
-0.533575 8.87263 0
-1.23733 9.82844 0
1.11287 -4.57492 0
3.91056 -6.71803 0
2.98822 -6.09539 0
2.11805 -5.42544 0
4.78498 -6.20606 0
-0.558878 -2.47693 0
0.495141 -3.46403 0
0.0535562 -1.61054 0
1.48199 -3.6824 0
5.86785 -6.61544 0
6.05445 -7.77515 0
-2.4759 5.34896 0
-2.13067 6.53515 0
-0.904174 7.80421 0
-1.27249 6.93283 0
0.0862156 7.88132 0
-1.14454 4.49505 0
0.150327 -0.617668 0
-0.797462 2.48863 0
-0.331664 3.60096 0
0.0631131 1.51279 0
0.741469 0.473441 0
0.646863 8.87532 0
0.0500633 9.91343 0
2.38121 -4.28561 0
3.85963 -5.6411 0
3.00177 -5.21331 0
5.5745 -5.49255 0
4.69162 -5.28372 0
0.629707 -2.29348 0
1.25625 -2.95141 0
0.757528 -1.39151 0
2.1645 -3.13606 0
2.99404 -3.4769 0
6.15605 -4.79247 0
6.65651 -5.77011 0
7.02482 -6.92481 0
-1.01974 5.82097 0
-0.372661 6.88446 0
1.12279 7.77065 0
0.558049 7.08075 0
-0.000763323 4.7256 0
0.60705 3.82812 0
1.33898 -0.641925 0
0.539135 2.65121 0
0.966137 1.57502 0
1.9103 0.213879 0
1.61486 1.06509 0
2.12972 7.58474 0
1.79948 8.71371 0
1.33748 9.82891 0
3.82327 -4.35212 0
5.11731 -4.44966 0
5.84663 -3.93573 0
3.7844 -3.2014 0
1.81241 -1.88275 0
3.01943 -2.57413 0
6.78449 -3.94852 0
7.38266 -4.8976 0
7.87532 -5.95464 0
0.483418 5.8823 0
1.42839 6.74296 0
2.37473 6.67019 0
1.21011 4.55668 0
1.48832 3.39795 0
2.43599 -0.692073 0
2.8283 0.142616 0
1.78904 2.16302 0
2.61212 1.15025 0
3.07257 7.17142 0
2.90474 8.37833 0
2.60315 9.57825 0
4.91199 -3.32836 0
6.12175 -3.10921 0
4.17339 -2.27554 0
3.24478 -1.50306 0
6.73262 -2.31346 0
7.23347 -3.04312 0
7.96645 -3.913 0
8.5914 -4.88144 0
2.02393 5.60069 0
3.0871 6.1548 0
2.36422 4.12746 0
2.42036 3.06124 0
3.52609 -0.460912 0
3.61614 0.61336 0
2.96218 2.28835 0
3.54604 1.52546 0
4.0131 5.89948 0
3.98545 6.79485 0
3.97427 7.94065 0
3.82504 9.16372 0
5.56985 -1.9165 0
4.5099 -1.12977 0
6.71553 -1.33641 0
7.59445 -2.03692 0
8.39929 -2.86207 0
9.16198 -3.72426 0
3.41982 4.878 0
3.33954 3.38593 0
4.69204 0.130096 0
4.51994 1.31019 0
4.06602 2.44422 0
4.57189 5.15396 0
4.84518 6.1927 0
4.98194 7.38267 0
4.9819 8.5924 0
5.88486 -0.434996 0
7.01298 -0.48838 0
7.76196 -1.08561 0
8.68747 -1.74645 0
9.57749 -2.50283 0
4.55361 3.82856 0
5.8193 1.09887 0
5.3727 2.53561 0
5.38199 4.62223 0
5.6142 5.52554 0
5.89925 6.67423 0
6.05448 7.87521 0
6.84849 0.463696 0
7.85621 -0.0256459 0
8.86352 -0.584535 0
9.82958 -1.23748 0
6.96314 1.34995 0
5.72325 3.77988 0
6.54396 2.19833 0
6.38275 3.08921 0
6.29502 4.68889 0
6.6957 5.84011 0
7.02483 7.02475 0
7.78749 0.967995 0
8.86287 0.572968 0
9.91381 0.0500124 0
7.61941 2.00513 0
6.83212 3.90594 0
7.27268 2.94805 0
7.38135 4.88777 0
7.87657 6.05551 0
8.72647 1.7276 0
9.82933 1.33749 0
8.4244 2.83892 0
7.98489 3.9179 0
8.59297 4.98235 0
9.5775 2.60291 0
9.16307 3.82482 0
CELLS 542 2168
3 2 0 4
3 0 1 7
3 4 0 7
3 1 5 8
3 7 1 8
3 3 2 13
3 13 2 4
3 11 3 14
3 14 3 13
3 13 4 15
3 4 7 16
3 15 4 16
3 5 6 17
3 8 5 17
3 6 9 18
3 17 6 18
3 7 8 19
3 16 7 19
3 8 17 20
3 19 8 20
3 9 10 23
3 18 9 23
3 10 21 24
3 23 10 24
3 12 11 25
3 25 11 14
3 26 12 27
3 27 12 25
3 14 13 29
3 29 13 15
3 25 14 30
3 30 14 29
3 29 15 31
3 15 16 33
3 31 15 33
3 16 19 34
3 33 16 34
3 17 18 35
3 20 17 35
3 18 23 36
3 35 18 36
3 19 20 37
3 34 19 37
3 20 35 38
3 37 20 38
3 21 22 39
3 24 21 39
3 22 32 40
3 39 22 40
3 23 24 41
3 36 23 41
3 24 39 42
3 41 24 42
3 27 25 44
3 44 25 30
3 28 26 45
3 45 26 27
3 45 27 46
3 46 27 44
3 47 28 48
3 48 28 45
3 30 29 50
3 50 29 31
3 44 30 51
3 51 30 50
3 50 31 52
3 31 33 52
3 32 43 53
3 40 32 53
3 53 43 54
3 33 34 55
3 34 37 55
3 33 55 52
3 35 36 56
3 38 35 56
3 36 41 57
3 56 36 57
3 37 38 58
3 38 56 58
3 37 58 55
3 39 40 59
3 42 39 59
3 40 53 60
3 59 40 60
3 41 42 61
3 57 41 61
3 42 59 62
3 61 42 62
3 43 63 54
3 46 44 64
3 64 44 51
3 48 45 65
3 65 45 46
3 65 46 66
3 66 46 64
3 49 47 67
3 67 47 48
3 67 48 68
3 68 48 65
3 69 49 70
3 70 49 67
3 52 55 72
3 64 51 73
3 51 50 73
3 50 52 73
3 73 52 74
3 74 52 72
3 53 54 75
3 60 53 75
3 54 63 76
3 54 76 77
3 75 54 77
3 55 58 78
3 72 55 78
3 72 78 79
3 56 57 80
3 57 61 80
3 56 80 58
3 58 80 81
3 78 58 81
3 59 60 82
3 62 59 82
3 60 75 83
3 82 60 83
3 61 62 84
3 62 82 84
3 61 84 80
3 63 85 76
3 66 64 86
3 64 73 86
3 68 65 87
3 87 65 66
3 87 66 86
3 70 67 88
3 88 67 68
3 88 68 89
3 89 68 87
3 71 69 90
3 90 69 70
3 90 70 91
3 91 70 88
3 92 71 93
3 93 71 90
3 74 72 94
3 94 72 79
3 86 73 95
3 95 73 74
3 95 74 96
3 96 74 94
3 97 86 95
3 76 85 99
3 75 77 100
3 83 75 100
3 76 99 101
3 77 76 101
3 77 101 102
3 100 77 102
3 94 79 103
3 78 81 104
3 79 78 104
3 79 104 103
3 80 84 105
3 81 80 105
3 81 105 106
3 104 81 106
3 82 83 107
3 83 100 107
3 82 107 84
3 84 107 108
3 105 84 108
3 85 109 99
3 89 87 110
3 87 86 110
3 110 86 97
3 91 88 111
3 111 88 89
3 111 89 110
3 93 90 112
3 112 90 91
3 112 91 113
3 113 91 111
3 98 92 114
3 114 92 93
3 114 93 115
3 115 93 112
3 116 98 114
3 117 103 118
3 96 94 119
3 94 103 119
3 119 103 117
3 97 95 120
3 120 95 96
3 120 96 119
3 121 110 97
3 121 97 122
3 122 97 120
3 123 119 117
3 124 98 116
3 99 109 125
3 99 125 126
3 101 99 126
3 100 102 127
3 100 127 107
3 101 126 128
3 102 101 128
3 102 128 127
3 104 106 129
3 104 129 103
3 103 129 118
3 105 108 130
3 106 105 130
3 106 130 129
3 107 127 131
3 108 107 131
3 108 131 132
3 108 132 130
3 109 134 125
3 125 134 133
3 113 111 135
3 111 110 135
3 135 110 121
3 115 112 136
3 136 112 113
3 136 113 135
3 116 114 137
3 137 114 115
3 137 115 138
3 138 115 136
3 139 124 116
3 139 116 140
3 140 116 137
3 141 135 121
3 118 129 142
3 118 142 143
3 117 118 143
3 123 117 143
3 122 120 144
3 120 119 144
3 144 119 123
3 141 121 145
3 145 121 122
3 145 122 144
3 146 141 145
3 147 144 123
3 147 123 148
3 143 148 123
3 150 124 139
3 149 150 139
3 131 127 151
3 125 133 152
3 126 125 152
3 126 152 153
3 128 126 153
3 128 153 154
3 128 154 127
3 127 154 151
3 152 133 155
3 130 132 156
3 130 156 129
3 129 156 142
3 131 151 157
3 132 131 157
3 132 157 156
3 156 158 142
3 157 151 159
3 133 160 155
3 134 161 133
3 133 161 160
3 138 136 162
3 136 135 162
3 162 135 141
3 140 137 163
3 163 137 138
3 163 138 162
3 149 139 164
3 164 139 140
3 164 140 165
3 165 140 163
3 166 149 164
3 167 162 141
3 167 141 146
3 142 158 168
3 143 142 168
3 143 168 148
3 146 145 169
3 145 144 169
3 169 144 147
3 170 167 146
3 170 146 169
3 171 169 147
3 171 147 148
3 171 148 172
3 168 172 148
3 173 149 166
3 174 150 149
3 173 174 149
3 154 175 151
3 151 175 159
3 152 155 176
3 153 152 176
3 153 176 177
3 153 177 154
3 154 177 175
3 155 160 178
3 155 178 179
3 176 155 179
3 156 157 180
3 156 180 158
3 157 159 181
3 157 181 180
3 158 180 182
3 158 182 168
3 159 175 183
3 159 183 181
3 175 184 183
3 160 186 178
3 178 186 185
3 161 187 160
3 160 187 186
3 165 163 188
3 163 162 188
3 188 162 167
3 166 164 189
3 189 164 165
3 189 165 188
3 190 173 166
3 190 166 191
3 191 166 189
3 192 188 167
3 192 167 170
3 193 192 170
3 182 194 168
3 194 172 168
3 193 170 195
3 170 169 195
3 195 169 171
3 196 195 171
3 196 171 172
3 194 197 172
3 197 198 172
3 198 196 172
3 200 173 190
3 199 200 190
3 201 174 173
3 200 201 173
3 176 179 202
3 177 176 202
3 177 202 175
3 175 202 184
3 178 185 203
3 178 203 179
3 179 203 202
3 203 185 204
3 202 205 184
3 183 206 181
3 180 181 206
3 180 206 182
3 182 206 194
3 183 184 207
3 205 207 184
3 183 207 206
3 185 208 204
3 186 209 185
3 185 209 208
3 187 210 186
3 186 210 209
3 191 189 211
3 189 188 211
3 211 188 192
3 199 190 212
3 212 190 191
3 212 191 211
3 213 199 212
3 214 211 192
3 214 192 193
3 215 214 193
3 215 193 195
3 206 216 194
3 216 197 194
3 216 217 197
3 215 195 218
3 218 195 196
3 198 218 196
3 217 219 197
3 219 218 198
3 197 219 198
3 220 199 213
3 221 200 199
3 220 221 199
3 222 201 200
3 221 222 200
3 203 204 223
3 203 223 202
3 202 223 205
3 204 208 224
3 204 224 223
3 205 223 225
3 205 225 207
3 207 225 226
3 207 226 206
3 226 216 206
3 208 228 224
3 224 228 227
3 209 229 208
3 229 228 208
3 210 230 209
3 209 230 229
3 213 212 231
3 212 211 231
3 231 211 214
3 232 220 213
3 232 213 231
3 233 231 214
3 233 214 215
3 234 233 215
3 234 215 218
3 226 235 216
3 235 217 216
3 235 236 217
3 217 236 219
3 237 234 218
3 237 218 219
3 236 238 219
3 238 237 219
3 240 220 232
3 239 240 232
3 241 221 220
3 240 241 220
3 242 222 221
3 241 242 221
3 224 227 243
3 224 243 223
3 223 243 225
3 225 243 244
3 225 244 226
3 226 244 235
3 227 245 243
3 228 246 227
3 227 246 245
3 229 247 228
3 228 247 246
3 230 248 229
3 229 248 247
3 239 232 249
3 232 231 249
3 249 231 233
3 250 249 233
3 250 233 234
3 237 250 234
3 244 251 235
3 235 251 236
3 251 252 236
3 236 252 238
3 252 253 238
3 253 250 237
3 253 237 238
3 254 239 249
3 255 240 239
3 254 255 239
3 256 241 240
3 255 256 240
3 257 242 241
3 256 257 241
3 245 258 243
3 243 258 244
3 244 258 251
3 245 259 258
3 246 260 245
3 245 260 259
3 247 261 246
3 246 261 260
3 248 262 247
3 247 262 261
3 254 249 263
3 263 249 250
3 253 263 250
3 258 264 251
3 251 264 252
3 264 265 252
3 265 263 253
3 252 265 253
3 266 254 263
3 267 255 254
3 266 267 254
3 268 256 255
3 267 268 255
3 269 257 256
3 268 269 256
3 259 270 258
3 270 264 258
3 260 271 259
3 259 271 270
3 261 272 260
3 260 272 271
3 262 273 261
3 273 272 261
3 270 274 264
3 275 266 263
3 275 263 265
3 274 276 264
3 276 265 264
3 276 277 265
3 277 275 265
3 278 267 266
3 275 278 266
3 279 268 267
3 278 279 267
3 280 269 268
3 279 280 268
3 271 281 270
3 270 281 274
3 272 282 271
3 271 282 281
3 273 283 272
3 272 283 282
3 281 284 274
3 274 284 276
3 285 278 275
3 277 285 275
3 284 286 276
3 286 285 277
3 276 286 277
3 287 279 278
3 285 287 278
3 288 280 279
3 287 288 279
3 282 289 281
3 281 289 284
3 283 290 282
3 282 290 289
3 289 291 284
3 284 291 286
3 291 292 286
3 292 287 285
3 286 292 285
3 293 288 287
3 292 293 287
3 290 294 289
3 289 294 291
3 294 295 291
3 295 293 292
3 291 295 292
CELL_TYPES 542
5
5
5
5
5
5
5
5
5
5
5
5
5
5
5
5
5
5
5
5
5
5
5
5
5
5
5
5
5
5
5
5
5
5
5
5
5
5
5
5
5
5
5
5
5
5
5
5
5
5
5
5
5
5
5
5
5
5
5
5
5
5
5
5
5
5
5
5
5
5
5
5
5
5
5
5
5
5
5
5
5
5
5
5
5
5
5
5
5
5
5
5
5
5
5
5
5
5
5
5
5
5
5
5
5
5
5
5
5
5
5
5
5
5
5
5
5
5
5
5
5
5
5
5
5
5
5
5
5
5
5
5
5
5
5
5
5
5
5
5
5
5
5
5
5
5
5
5
5
5
5
5
5
5
5
5
5
5
5
5
5
5
5
5
5
5
5
5
5
5
5
5
5
5
5
5
5
5
5
5
5
5
5
5
5
5
5
5
5
5
5
5
5
5
5
5
5
5
5
5
5
5
5
5
5
5
5
5
5
5
5
5
5
5
5
5
5
5
5
5
5
5
5
5
5
5
5
5
5
5
5
5
5
5
5
5
5
5
5
5
5
5
5
5
5
5
5
5
5
5
5
5
5
5
5
5
5
5
5
5
5
5
5
5
5
5
5
5
5
5
5
5
5
5
5
5
5
5
5
5
5
5
5
5
5
5
5
5
5
5
5
5
5
5
5
5
5
5
5
5
5
5
5
5
5
5
5
5
5
5
5
5
5
5
5
5
5
5
5
5
5
5
5
5
5
5
5
5
5
5
5
5
5
5
5
5
5
5
5
5
5
5
5
5
5
5
5
5
5
5
5
5
5
5
5
5
5
5
5
5
5
5
5
5
5
5
5
5
5
5
5
5
5
5
5
5
5
5
5
5
5
5
5
5
5
5
5
5
5
5
5
5
5
5
5
5
5
5
5
5
5
5
5
5
5
5
5
5
5
5
5
5
5
5
5
5
5
5
5
5
5
5
5
5
5
5
5
5
5
5
5
5
5
5
5
5
5
5
5
5
5
5
5
5
5
5
5
5
5
5
5
5
5
5
5
5
5
5
5
5
5
5
5
5
5
5
5
5
5
5
5
5
5
5
5
5
5
5
5
5
5
5
5
5
5
5
5
5
5
5
5
5
5
5
5
5
5
5
5
5
5
5
5
5
5
5
5
5
5
5
5
5
5
5
5
5
5
5
5
5
5
5
5
5
5
5
5
5
5
5
5
5
5
5
5
5
5
5
5
5
5
5
POINT_DATA 296
SCALARS concentrations float 4
LOOKUP_TABLE default
0 0.972774 0.187234 12.0504
0 0.972775 0.186929 12.1075
0 0.972774 0.186381 12.3165
0 0.972775 0.185614 11.8615
0 0.972779 0.0909065 0.00531587
0 0.972778 0.18647 12.1207
0 0.972779 0.186085 12.2865
0 0.97278 0.0909064 0.00529753
0 0.972781 0.0909064 0.00559301
0 0.972776 0.185917 11.9983
0 0.972773 0.186277 12.1188
0 0.972776 0.184782 11.9795
0 0.972775 0.184904 11.9682
0 0.972779 0.0909062 0.00524254
0 0.97278 0.0909056 0.00553794
0 0.972789 0.0909055 0.00523557
0 0.972789 0.0909053 0.00519838
0 0.972783 0.0909056 0.00625297
0 0.972782 0.0909058 0.00609898
0 0.97279 0.0909053 0.00536034
0 0.97279 0.090905 0.00557464
0 0.972769 0.187339 12
0 0.972772 0.188511 12.2252
0 0.97278 0.0909058 0.00548442
0 0.972777 0.0909064 0.00479727
0 0.97278 0.0909053 0.00557041
0 0.972774 0.184255 11.8655
0 0.972779 0.0909054 0.00527978
0 0.972773 0.184935 11.9232
0 0.972789 0.0909055 0.00532028
0 0.972789 0.0909046 0.00524242
0 0.972797 0.0909017 0.00459854
0 0.972775 0.185802 11.7594
0 0.972799 0.0909001 0.00430954
0 0.972797 0.090902 0.00472719
0 0.97279 0.0909049 0.00564468
0 0.972789 0.0909051 0.00544841
0 0.972799 0.0909004 0.00455629
0 0.972798 0.0909024 0.00505077
0 0.972776 0.0909068 0.00425214
0 0.972778 0.0909073 0.00504737
0 0.972788 0.0909051 0.0049762
0 0.972787 0.0909052 0.00464442
0 0.972776 0.185067 11.9956
0 0.972789 0.0909053 0.00529271
0 0.972778 0.0909054 0.00512675
0 0.972788 0.0909057 0.00521079
0 0.972772 0.18412 12.0835
0 0.972777 0.0909048 0.00469431
0 0.972773 0.183762 11.8395
0 0.972798 0.0909004 0.00439586
0 0.972797 0.090902 0.00469958
0 0.972805 0.0908925 0.00294153
0 0.97278 0.0909065 0.00517283
0 0.97278 0.0909059 0.00534979
0 0.972805 0.0908927 0.00303221
0 0.972799 0.0909008 0.00465472
0 0.972797 0.0909024 0.00470958
0 0.972805 0.0908932 0.00319026
0 0.972788 0.0909053 0.0046299
0 0.972789 0.0909053 0.00486466
0 0.972798 0.0909013 0.00426816
0 0.972797 0.0909028 0.00436446
0 0.972776 0.183649 11.8161
0 0.972798 0.0909001 0.00424717
0 0.972787 0.0909053 0.00493157
0 0.972796 0.090902 0.00445467
0 0.972777 0.0909045 0.00463572
0 0.972787 0.0909045 0.0047099
0 0.972773 0.183571 11.8668
0 0.972778 0.0909046 0.00493132
0 0.972774 0.183612 11.6185
0 0.97281 0.0908896 0.00243663
0 0.972804 0.0908926 0.00292422
0 0.97281 0.0908897 0.00239865
0 0.97279 0.0909052 0.00506265
0 0.972781 0.090905 0.00510279
0 0.97279 0.0909051 0.00516383
0 0.97281 0.0908898 0.00248562
0 0.972814 0.0908885 0.00223698
0 0.972805 0.0908934 0.00311405
0 0.97281 0.0908902 0.00255529
0 0.972799 0.0909002 0.00399127
0 0.972797 0.0909013 0.00430158
0 0.972805 0.0908935 0.0029716
0 0.972776 0.184094 11.8944
0 0.972804 0.0908923 0.00277079
0 0.972798 0.0909002 0.00403343
0 0.972787 0.0909049 0.0048056
0 0.972796 0.090902 0.00429472
0 0.972779 0.0909048 0.00481212
0 0.972788 0.090905 0.00489524
0 0.972776 0.183598 11.8922
0 0.97278 0.0909046 0.0049047
0 0.972815 0.0908876 0.00204742
0 0.972809 0.0908898 0.00237089
0 0.972814 0.0908882 0.00211894
0 0.972809 0.0908895 0.00229425
0 0.972777 0.184194 11.7182
0 0.972782 0.0909046 0.00532633
0 0.972799 0.0909009 0.00435429
0 0.97279 0.0909037 0.00502845
0 0.972798 0.0909023 0.0047213
0 0.972817 0.090885 0.00158613
0 0.972815 0.0908879 0.0021355
0 0.97281 0.0908903 0.00253261
0 0.972814 0.0908889 0.00230224
0 0.972805 0.0908937 0.00303586
0 0.97281 0.0908901 0.00244938
0 0.972778 0.183585 11.8926
0 0.972804 0.0908924 0.00273201
0 0.972798 0.0909007 0.00411988
0 0.972788 0.090905 0.00496431
0 0.972797 0.0909029 0.00456946
0 0.972781 0.0909049 0.00522828
0 0.972789 0.0909049 0.0050604
0 0.972781 0.0909049 0.00518571
0 0.97282 0.0908835 0.00128511
0 0.97282 0.0908834 0.0013013
0 0.972817 0.0908846 0.00146561
0 0.972814 0.0908876 0.00196701
0 0.972809 0.0908894 0.00227535
0 0.972814 0.0908884 0.00209159
0 0.97282 0.0908823 0.00102285
0 0.972777 0.183921 11.8759
0 0.972782 0.0909045 0.00557236
0 0.972791 0.0909029 0.00499031
0 0.972805 0.090895 0.00338718
0 0.972799 0.0909014 0.00464678
0 0.972818 0.0908851 0.00161612
0 0.972815 0.090888 0.00212402
0 0.972811 0.0908902 0.00249152
0 0.972815 0.0908879 0.00209426
0 0.972781 0.0909047 0.0052735
0 0.972777 0.183677 11.8304
0 0.972805 0.0908925 0.00281237
0 0.972799 0.090901 0.00432807
0 0.97279 0.0909048 0.0051587
0 0.972798 0.0909023 0.00466202
0 0.972781 0.0909047 0.00516071
0 0.97279 0.0909046 0.00515746
0 0.97281 0.0908894 0.00231199
0 0.972821 0.0908824 0.00114573
0 0.972822 0.0908803 0.000701749
0 0.972818 0.0908843 0.00138197
0 0.972815 0.0908876 0.00194973
0 0.972814 0.0908886 0.00216408
0 0.97282 0.0908818 0.000929833
0 0.972822 0.0908783 0.000286894
0 0.972781 0.0909045 0.00563191
0 0.972777 0.184534 11.8822
0 0.972811 0.0908905 0.0026091
0 0.97279 0.0909033 0.00506106
0 0.972799 0.0909023 0.00485727
0 0.972806 0.0908953 0.00350588
0 0.972789 0.0909045 0.00519072
0 0.972818 0.090885 0.00160916
0 0.972816 0.0908876 0.00208337
0 0.972821 0.0908826 0.00120891
0 0.972814 0.0908906 0.00264455
0 0.97278 0.0909047 0.00516541
0 0.972776 0.183577 11.8235
0 0.972805 0.0908924 0.00288584
0 0.972799 0.0909004 0.00438306
0 0.97279 0.0909046 0.00528121
0 0.972798 0.0909021 0.00473636
0 0.972789 0.0909049 0.00527838
0 0.97281 0.0908896 0.00239458
0 0.972822 0.0908784 0.000482253
0 0.972818 0.0908841 0.00136728
0 0.972815 0.090888 0.00209766
0 0.97282 0.0908812 0.000862238
0 0.972822 0.0908789 0.000552103
0 0.97278 0.0909043 0.00510097
0 0.972777 0.183451 11.8855
0 0.97281 0.0908913 0.00279849
0 0.972799 0.0909009 0.00456175
0 0.972805 0.0908963 0.00373236
0 0.972789 0.0909052 0.00520863
0 0.972798 0.090901 0.00453587
0 0.972819 0.0908843 0.00151154
0 0.972817 0.0908864 0.00190146
0 0.972821 0.0908823 0.0012058
0 0.972815 0.090889 0.00238862
0 0.972811 0.0908923 0.0029942
0 0.972789 0.090905 0.00514217
0 0.972779 0.0909044 0.00493707
0 0.972775 0.182632 11.7174
0 0.972805 0.0908924 0.00293607
0 0.972799 0.0909001 0.0043732
0 0.972789 0.0909048 0.00508855
0 0.972798 0.0909019 0.00463873
0 0.97281 0.09089 0.00248554
0 0.972814 0.0908891 0.00231494
0 0.972821 0.0908813 0.00104026
0 0.972818 0.0908845 0.00148851
0 0.97282 0.0908823 0.00112591
0 0.97282 0.0908826 0.00127304
0 0.97282 0.0908829 0.00128445
0 0.972788 0.0909049 0.00505373
0 0.972779 0.0909041 0.00470267
0 0.972774 0.18349 11.8438
0 0.972805 0.0908941 0.00330277
0 0.972799 0.0909004 0.00439736
0 0.972797 0.0909029 0.00484426
0 0.972809 0.0908922 0.00297926
0 0.972818 0.0908844 0.00158888
0 0.972815 0.0908889 0.00240032
0 0.972789 0.0909047 0.00517264
0 0.97278 0.0909046 0.0049313
0 0.972774 0.182973 11.7572
0 0.972805 0.0908922 0.00289202
0 0.972799 0.0909002 0.00427374
0 0.972797 0.0909033 0.00481621
0 0.972809 0.09089 0.00249518
0 0.972814 0.0908884 0.00221931
0 0.972819 0.0908851 0.00173471
0 0.972818 0.0908869 0.00206482
0 0.972817 0.0908854 0.00170578
0 0.972817 0.0908862 0.00191148
0 0.972788 0.0909052 0.00515945
0 0.972779 0.0909035 0.00496232
0 0.972775 0.182316 11.6998
0 0.972805 0.0908941 0.00330342
0 0.972799 0.0909001 0.00441764
0 0.97281 0.0908906 0.00270577
0 0.972815 0.0908875 0.00215805
0 0.972798 0.0909015 0.00472821
0 0.97279 0.0909053 0.00540674
0 0.972781 0.0909049 0.00539458
0 0.972775 0.184617 11.8974
0 0.972805 0.0908923 0.00289256
0 0.972798 0.0909011 0.00446184
0 0.972809 0.0908897 0.00248504
0 0.972814 0.0908893 0.00242742
0 0.972815 0.0908884 0.00233432
0 0.972814 0.0908891 0.00245669
0 0.972814 0.0908889 0.00238812
0 0.972814 0.0908898 0.00257554
0 0.972797 0.0909025 0.00479454
0 0.972788 0.0909052 0.00518777
0 0.972779 0.0909033 0.00471579
0 0.972775 0.181324 11.5678
0 0.972805 0.0908927 0.00309439
0 0.97281 0.0908894 0.00250003
0 0.972799 0.0909002 0.00452139
0 0.97279 0.0909054 0.00547563
0 0.972781 0.0909047 0.00538386
0 0.972776 0.184639 11.9331
0 0.972805 0.0908924 0.00297861
0 0.972809 0.09089 0.00257608
0 0.97281 0.0908891 0.00244293
0 0.97281 0.0908895 0.0025269
0 0.972809 0.0908898 0.0025685
0 0.972799 0.0909005 0.00450991
0 0.972789 0.0909048 0.00525277
0 0.972779 0.090904 0.00501752
0 0.972774 0.182537 11.7238
0 0.972805 0.0908929 0.00315518
0 0.972798 0.0909022 0.00488004
0 0.97279 0.0909045 0.00531014
0 0.972781 0.0909044 0.00530209
0 0.972777 0.183131 11.782
0 0.972805 0.0908927 0.00309859
0 0.972805 0.0908925 0.00308295
0 0.972805 0.0908925 0.00307484
0 0.972797 0.0909022 0.0048927
0 0.972789 0.0909044 0.00531263
0 0.97278 0.090904 0.00526076
0 0.972775 0.183342 11.8063
0 0.972799 0.0909006 0.0045804
0 0.97279 0.0909042 0.00524931
0 0.972781 0.0909042 0.00526787
0 0.972777 0.182464 11.7233
0 0.972798 0.0909025 0.00492087
0 0.972799 0.0909006 0.00459496
0 0.972799 0.0909007 0.00458817
0 0.972798 0.0909025 0.00492556
0 0.972789 0.090905 0.00542718
0 0.972781 0.0909037 0.00532995
0 0.972776 0.182625 11.7626
0 0.972789 0.0909048 0.00533571
0 0.972781 0.0909041 0.00520298
0 0.972776 0.183011 11.7705
0 0.972789 0.0909049 0.00536653
0 0.972789 0.090905 0.0053858
0 0.972789 0.0909049 0.00535073
0 0.972781 0.0909036 0.00514665
0 0.972777 0.180373 11.5227
0 0.972781 0.0909041 0.00521282
0 0.972776 0.182959 11.7417
0 0.972781 0.0909039 0.00521414
0 0.972781 0.0909038 0.00509408
0 0.972776 0.181365 11.56
0 0.972776 0.183098 11.8143
0 0.972776 0.182476 11.719
VECTORS fa_u float
0.0111342 0.00460897 0
0.0104815 0.00606055 0
0.0118947 0.00319581 0
0.0117647 0.00151223 0
4.92443e-06 2.00211e-06 0
0.00958744 0.00741576 0
0.00869927 0.00867644 0
4.7102e-06 2.42443e-06 0
4.31928e-06 3.55325e-06 0
0.00731384 0.00951137 0
0.00608348 0.0104812 0
0.0119795 1.26601e-06 0
0.0118682 -0.00154389 0
5.18291e-06 7.88418e-07 0
5.53493e-06 1.82424e-07 0
5.02274e-06 1.4776e-06 0
4.75286e-06 2.10559e-06 0
4.4946e-06 4.34721e-06 0
4.54032e-06 4.07223e-06 0
4.48619e-06 2.93382e-06 0
4.26994e-06 3.58388e-06 0
0.00459862 0.0110839 0
0.00311993 0.0118204 0
3.47883e-06 4.23988e-06 0
3.11501e-06 3.64835e-06 0
5.57018e-06 -5.01931e-08 0
0.0114605 -0.0030736 0
5.23046e-06 -7.19955e-07 0
0.0110126 -0.00457007 0
5.29288e-06 5.3928e-07 0
5.24131e-06 1.07975e-07 0
4.51159e-06 8.89979e-07 0
0.00154106 0.011658 0
4.03337e-06 1.51792e-06 0
4.18694e-06 2.19449e-06 0
4.06285e-06 3.91863e-06 0
3.66179e-06 4.03441e-06 0
3.6834e-06 2.68185e-06 0
3.77543e-06 3.35505e-06 0
1.02137e-06 4.12765e-06 0
9.06269e-07 4.96534e-06 0
2.88824e-06 4.05223e-06 0
2.10897e-06 4.13798e-06 0
1.44256e-05 0.0119956 0
5.27386e-06 -4.46247e-07 0
4.95842e-06 -1.30291e-06 0
5.11096e-06 -1.01507e-06 0
0.0104652 -0.00604061 0
4.36963e-06 -1.71548e-06 0
0.00939446 -0.00720537 0
4.38744e-06 2.71881e-07 0
4.69859e-06 -9.64948e-08 0
2.88073e-06 5.94957e-07 0
-6.24451e-08 5.17245e-06 0
-5.30572e-07 5.32341e-06 0
2.71436e-06 1.3515e-06 0
3.1787e-06 3.40033e-06 0
2.85103e-06 3.74857e-06 0
2.42414e-06 2.07396e-06 0
1.17634e-06 4.47797e-06 0
4.91859e-07 4.83973e-06 0
2.11752e-06 3.70585e-06 0
1.55197e-06 4.0792e-06 0
-0.0015207 0.0117179 0
4.20927e-06 -5.6609e-07 0
4.6208e-06 -1.72296e-06 0
4.26366e-06 -1.29045e-06 0
3.6927e-06 -2.80247e-06 0
4.11731e-06 -2.28713e-06 0
0.00839311 -0.00838902 0
3.56104e-06 -3.4113e-06 0
0.00707143 -0.00921873 0
2.31169e-06 7.70212e-07 0
2.92138e-06 -1.289e-07 0
2.39007e-06 2.02736e-07 0
-3.55319e-07 5.05017e-06 0
-1.00263e-06 5.00331e-06 0
-8.6367e-07 5.0911e-06 0
2.08534e-06 1.35265e-06 0
2.01697e-06 9.67423e-07 0
1.89911e-06 2.46793e-06 0
1.78265e-06 1.83076e-06 0
7.51606e-07 3.91986e-06 0
8.30391e-08 4.30078e-06 0
1.10053e-06 2.7603e-06 0
-0.00309441 0.0114849 0
2.64221e-06 -8.34282e-07 0
3.63984e-06 -1.73785e-06 0
3.71107e-06 -3.05316e-06 0
3.57262e-06 -2.38348e-06 0
3.08033e-06 -3.69704e-06 0
3.3492e-06 -3.57019e-06 0
0.00593107 -0.0103076 0
2.42457e-06 -4.26351e-06 0
1.99466e-06 4.61821e-07 0
2.32736e-06 -4.52282e-07 0
2.1172e-06 -8.57879e-08 0
2.05304e-06 -1.024e-06 0
0.00449145 -0.0108232 0
-2.11106e-06 4.89012e-06 0
-4.5492e-07 4.33046e-06 0
-1.54299e-06 4.78587e-06 0
-1.15385e-06 4.57813e-06 0
1.42706e-06 6.92322e-07 0
1.63382e-06 1.37512e-06 0
1.28215e-06 2.18408e-06 0
1.38912e-06 1.83594e-06 0
2.48528e-07 3.02567e-06 0
6.61394e-07 2.3584e-06 0
-0.00457002 0.0109795 0
2.24872e-06 -1.5515e-06 0
3.03414e-06 -2.78701e-06 0
2.82495e-06 -4.08215e-06 0
2.86437e-06 -3.56025e-06 0
2.06816e-06 -4.80184e-06 0
2.354e-06 -4.47955e-06 0
1.60662e-06 -4.93055e-06 0
1.24538e-06 3.1707e-07 0
1.01967e-06 8.08493e-07 0
1.46545e-06 -2.19592e-08 0
1.87518e-06 -5.93986e-07 0
1.64241e-06 -1.5747e-06 0
1.72022e-06 -1.18979e-06 0
1.00069e-06 -2.11718e-07 0
0.0030939 -0.0114659 0
-2.41464e-06 5.02202e-06 0
-2.002e-06 4.57112e-06 0
-6.17044e-07 3.33051e-06 0
-1.63783e-06 4.34858e-06 0
9.66152e-07 1.29553e-06 0
7.78765e-07 1.97611e-06 0
-4.61921e-08 2.49109e-06 0
2.66414e-07 2.07725e-06 0
-2.73049e-06 4.51157e-06 0
-0.00589 0.0102599 0
1.74364e-06 -2.20661e-06 0
2.24994e-06 -3.69729e-06 0
1.79276e-06 -4.83717e-06 0
1.90178e-06 -4.25648e-06 0
8.04712e-07 -5.09759e-06 0
1.21621e-06 -5.01201e-06 0
1.13896e-06 -2.01198e-06 0
4.58846e-07 1.04983e-06 0
5.87756e-07 3.83399e-07 0
1.16546e-06 -7.42654e-07 0
1.22992e-06 -1.51286e-06 0
7.90064e-07 -2.01471e-06 0
5.99015e-07 -7.11175e-07 0
1.81484e-07 -2.22198e-07 0
4.73953e-08 -5.63171e-06 0
0.00153524 -0.0117826 0
-7.24667e-07 2.50644e-06 0
-2.46301e-06 4.4213e-06 0
-2.09803e-06 4.38079e-06 0
-1.2689e-06 3.26819e-06 0
-3.06151e-06 4.19175e-06 0
2.46147e-07 1.59022e-06 0
-3.06138e-07 2.06075e-06 0
-8.90762e-08 1.20563e-06 0
-9.90335e-07 2.45212e-06 0
-3.482e-06 3.81539e-06 0
-0.00719579 0.00938164 0
1.08737e-06 -2.67315e-06 0
1.26816e-06 -4.19559e-06 0
5.23171e-07 -5.25523e-06 0
8.08514e-07 -4.66684e-06 0
6.01994e-08 -5.27804e-06 0
5.44209e-07 -2.33192e-06 0
-1.92444e-07 4.42192e-07 0
4.99825e-07 -1.27265e-06 0
2.51949e-07 -2.08247e-06 0
6.08327e-10 -8.62238e-07 0
-5.00217e-07 -2.33667e-07 0
3.72809e-07 -5.08733e-06 0
2.44916e-05 -0.0118854 0
-1.47745e-06 2.37669e-06 0
-2.44204e-06 3.85305e-06 0
-2.01441e-06 3.14208e-06 0
-3.74448e-06 3.62059e-06 0
-2.97029e-06 3.42805e-06 0
-4.41838e-07 1.44552e-06 0
-8.62366e-07 1.69466e-06 0
-7.25873e-07 9.6284e-07 0
-1.45987e-06 1.89058e-06 0
-2.00735e-06 2.22165e-06 0
-4.03438e-06 3.18838e-06 0
-3.51189e-06 3.47006e-06 0
-0.00828222 0.00828864 0
3.95263e-07 -2.90934e-06 0
2.55741e-07 -4.36572e-06 0
-7.12434e-07 -5.03843e-06 0
-3.62286e-07 -4.62456e-06 0
-4.51582e-08 -2.48513e-06 0
-3.74343e-07 -2.28447e-06 0
-9.42267e-07 4.40754e-07 0
-2.85126e-07 -1.46095e-06 0
-5.64439e-07 -9.74208e-07 0
-1.26617e-06 -1.32087e-07 0
-1.06762e-06 -7.14132e-07 0
-1.52144e-06 -4.81928e-06 0
-1.40975e-06 -4.4864e-06 0
-0.00153403 -0.0117441 0
-2.24263e-06 2.42464e-06 0
-3.32937e-06 2.87264e-06 0
-3.97668e-06 2.76638e-06 0
-2.32237e-06 1.86617e-06 0
-1.24439e-06 9.87947e-07 0
-1.95065e-06 1.39874e-06 0
-4.48751e-06 2.57264e-06 0
-4.22733e-06 2.53916e-06 0
-0.0093317 0.00715207 0
-3.42352e-07 -2.87169e-06 0
-9.24168e-07 -4.17262e-06 0
-1.75398e-06 -4.48547e-06 0
-7.22897e-07 -2.38816e-06 0
-9.2724e-07 -2.01632e-06 0
-1.66327e-06 4.92683e-07 0
-2.06159e-06 -1.15359e-07 0
-1.10699e-06 -1.29779e-06 0
-1.74501e-06 -7.80181e-07 0
-2.15659e-06 -4.68711e-06 0
-1.73079e-06 -4.6507e-06 0
-0.00303616 -0.0112989 0
-2.73032e-06 1.85955e-06 0
-3.92606e-06 2.02526e-06 0
-2.43799e-06 1.17361e-06 0
-2.03472e-06 7.19074e-07 0
-4.47723e-06 1.51999e-06 0
-4.96401e-06 2.14276e-06 0
-4.85803e-06 2.34544e-06 0
-0.0103163 0.00592644 0
-1.09667e-06 -2.6766e-06 0
-2.08813e-06 -3.94306e-06 0
-1.30107e-06 -2.11722e-06 0
-1.53427e-06 -1.88107e-06 0
-2.32463e-06 2.12512e-07 0
-2.42361e-06 -4.01776e-07 0
-1.92942e-06 -1.4073e-06 0
-2.39035e-06 -9.58973e-07 0
-2.8695e-06 -3.84104e-06 0
-2.6724e-06 -4.44649e-06 0
-2.11288e-06 -4.21598e-06 0
-0.00440952 -0.0106944 0
-2.91353e-06 1.0424e-06 0
-2.43933e-06 5.47577e-07 0
-4.45056e-06 7.97182e-07 0
-5.31599e-06 1.31255e-06 0
-5.08721e-06 1.76244e-06 0
-0.0110215 0.00457439 0
-1.86334e-06 -2.32381e-06 0
-1.88708e-06 -1.75361e-06 0
-2.44113e-06 -9.39063e-08 0
-2.42756e-06 -7.01529e-07 0
-2.23699e-06 -1.26216e-06 0
-3.16328e-06 -3.21449e-06 0
-3.44603e-06 -3.9644e-06 0
-3.13622e-06 -3.91659e-06 0
-0.00587652 -0.0101446 0
-3.14185e-06 2.89644e-07 0
-4.86749e-06 3.49788e-07 0
-5.25788e-06 7.43142e-07 0