# vtk DataFile Version 2.0
CellBP Time: 3.76
ASCII
DATASET UNSTRUCTURED_GRID
POINTS 296 double
-9.00662 -3.7014 0
-8.43899 -4.85118 0
-9.41915 -2.48724 0
-9.66998 -1.22965 0
-8.35784 -2.81879 0
-7.72745 -5.91791 0
-6.88211 -6.88215 0
-7.9175 -3.87484 0
-7.34292 -4.86801 0
-5.91807 -7.72772 0
-4.85176 -8.43997 0
-9.75435 0.0499789 0
-9.67036 1.32972 0
-8.65795 -1.68399 0
-8.78659 -0.52964 0
-7.58997 -2.0042 0
-7.22602 -2.90658 0
-6.6379 -5.77911 0
-5.82264 -6.59717 0
-6.79054 -3.88905 0
-6.22083 -4.6761 0
-3.70133 -9.00623 0
-2.48692 -9.41795 0
-4.90667 -7.30911 0
-3.91317 -7.88656 0
-8.79305 0.64342 0
-9.42103 2.58773 0
-8.62358 1.77414 0
-9.00793 3.80188 0
-7.74458 -0.929015 0
-7.79481 0.0802608 0
-6.95283 -1.31593 0
-1.22955 -9.66978 0
-6.44173 -2.1532 0
-6.31963 -3.05625 0
-5.53677 -5.4748 0
-4.79611 -6.11574 0
-5.65926 -3.75716 0
-5.26962 -4.56178 0
-2.86629 -8.36429 0
-1.77863 -8.64061 0
-3.92831 -6.72385 0
-3.05675 -7.15293 0
0.0500366 -9.75411 0
-7.70582 1.14356 0
-8.33892 2.91554 0
-7.55222 2.11206 0
-8.44127 4.95248 0
-7.8804 3.97841 0
-7.72883 6.01893 0
-6.77898 -0.396873 0
-6.95684 0.552572 0
-5.77164 -1.00344 0
-0.59086 -8.81011 0
0.56571 -8.7713 0
-5.30335 -2.48037 0
-4.49216 -5.09596 0
-3.90267 -5.77558 0
-4.4391 -3.80491 0
-2.06251 -7.56231 0
-1.13553 -7.78623 0
-2.99468 -6.10235 0
-2.30913 -6.62011 0
1.32984 -9.67121 0
-6.68977 1.42212 0
-7.17254 3.11827 0
-6.65958 2.37312 0
-7.2951 4.98891 0
-6.71844 4.00327 0
-6.88322 6.98325 0
-6.57285 5.89447 0
-5.91898 7.82897 0
-4.45328 -1.18111 0
-5.81487 0.513782 0
-4.65634 -0.0103772 0
0.00851845 -7.84853 0
1.73866 -8.64429 0
0.949016 -7.76388 0
-4.03867 -2.40648 0
-3.48567 -1.39124 0
-3.29466 -4.80556 0
-3.266 -3.26791 0
-1.37865 -6.67582 0
-0.508769 -7.02534 0
-1.97564 -5.5373 0
2.58771 -9.42101 0
-5.50761 2.03703 0
-6.09507 3.07238 0
-6.10548 4.86995 0
-5.76209 3.99173 0
-5.76169 6.7176 0
-5.4525 5.61976 0
-4.85254 8.54147 0
-4.83881 7.40511 0
-3.50162 -0.424313 0
-4.4495 1.2491 0
-3.71161 0.592103 0
-4.06235 2.31993 0
-3.7021 9.10843 0
2.8628 -8.33344 0
0.419716 -6.79587 0
2.02216 -7.52639 0
1.30617 -6.90605 0
-2.44475 -0.873838 0
-2.83848 -2.13121 0
-2.29451 -4.09756 0
-2.32574 -2.97372 0
-0.442405 -5.86152 0
-1.22278 -4.49936 0
3.80223 -9.00882 0
-4.79009 3.39201 0
-5.08831 4.59449 0
-4.64754 6.28195 0
-4.53922 5.36015 0
-3.84405 7.99403 0
-3.82707 6.8463 0
-2.78355 8.42357 0
-1.64909 -0.137896 0
-1.4503 -0.890608 0
-2.4892 0.507283 0
-3.25376 1.44422 0
-3.2392 3.31674 0
-2.91111 2.37188 0
-1.35514 0.627132 0
-2.48767 9.52079 0
3.93303 -7.88766 0
2.9648 -7.15837 0
0.954158 -5.82243 0
2.0745 -6.41604 0
-1.68303 -1.99213 0
-1.43449 -3.27792 0
0.0902284 -4.74726 0
-0.566199 -3.6946 0
4.9326 -7.31947 0
4.9523 -8.44108 0
-3.77722 4.55196 0
-3.73508 5.75264 0
-2.88824 7.29055 0
-3.00997 6.3543 0
-1.66271 8.73449 0
-1.9403 7.6201 0
-2.33852 4.05192 0
-0.730751 -1.32728 0
-0.836918 -0.257627 0
-1.93628 1.68085 0
-2.12586 2.87598 0
-1.30663 3.54488 0
-0.869483 1.35088 0
-0.282371 0.456062 0
-0.533571 8.87257 0
-1.2297 9.77069 0
1.11286 -4.5749 0
3.91053 -6.71798 0
2.9882 -6.09534 0
2.11804 -5.4254 0
4.78494 -6.20602 0
-0.558874 -2.47691 0
0.495138 -3.46401 0
0.0535561 -1.61053 0
1.48198 -3.68237 0
5.86781 -6.61539 0
6.01909 -7.72903 0
-2.47589 5.34893 0
-2.13066 6.5351 0
-0.904167 7.80415 0
-1.27248 6.93277 0
0.0862154 7.88126 0
-1.14453 4.49502 0
0.150326 -0.617664 0
-0.797455 2.48862 0
-0.33166 3.60093 0
0.0631142 1.51278 0
0.741464 0.473438 0
0.646859 8.87526 0
0.0500886 9.85529 0
2.38119 -4.28558 0
3.8596 -5.64106 0
3.00175 -5.21328 0
5.57446 -5.49251 0
4.69158 -5.28368 0
0.629703 -2.29346 0
1.25624 -2.95139 0
0.757521 -1.3915 0
2.16448 -3.13603 0
2.99402 -3.47687 0
6.156 -4.79243 0
6.65646 -5.77007 0
6.98379 -6.88378 0
-1.01973 5.82093 0
-0.372658 6.88441 0
1.12278 7.77059 0
0.558045 7.0807 0
-0.000762731 4.72557 0
0.607047 3.82809 0
1.33897 -0.64192 0
0.539132 2.6512 0
0.966132 1.57501 0
1.91029 0.213877 0
1.61485 1.06508 0
2.12971 7.58469 0
1.79947 8.71365 0
1.32994 9.7713 0
3.82325 -4.35209 0
5.11727 -4.44963 0
5.84659 -3.9357 0
3.78438 -3.20138 0
1.81239 -1.88274 0
3.01941 -2.57411 0
6.78444 -3.94849 0
7.38261 -4.89756 0
7.82958 -5.91958 0
0.483414 5.88226 0
1.42838 6.74291 0
2.37471 6.67014 0
1.2101 4.55665 0
1.48831 3.39793 0
2.43597 -0.692068 0
2.82827 0.142614 0
1.78902 2.16301 0
2.6121 1.15024 0
3.07255 7.17136 0
2.90472 8.37827 0
2.58818 9.52219 0
4.91196 -3.32834 0
6.12171 -3.10919 0
4.17336 -2.27552 0
3.24476 -1.50305 0
6.73257 -2.31345 0
7.23342 -3.0431 0
7.9664 -3.91297 0
8.54088 -4.8523 0
2.02391 5.60066 0
3.08708 6.15476 0
2.36421 4.12743 0
2.42034 3.06121 0
3.52606 -0.46091 0
3.61611 0.613355 0
2.96216 2.28833 0
3.54602 1.52545 0
4.01307 5.89943 0
3.98542 6.7948 0
3.97425 7.94059 0
3.80286 9.11027 0
5.56982 -1.91648 0
4.50987 -1.12976 0
6.71548 -1.3364 0
7.59439 -2.0369 0
8.39923 -2.86205 0
9.10814 -3.70193 0
3.4198 4.87798 0
3.33952 3.38591 0
4.69202 0.130095 0
4.51991 1.31018 0
4.066 2.4442 0
4.57185 5.15392 0
4.84515 6.19265 0
4.98191 7.38262 0
4.95289 8.54217 0
5.88482 -0.434992 0
7.01293 -0.488377 0
7.7619 -1.0856 0
8.68741 -1.74644 0
9.52142 -2.48775 0
4.55359 3.82853 0
5.81927 1.09887 0
5.37267 2.5356 0
5.38195 4.62219 0
5.61416 5.5255 0
5.89921 6.67419 0
6.0191 7.82909 0
6.84844 0.463693 0
7.85615 -0.025646 0
8.86346 -0.58453 0
9.77198 -1.22988 0
6.96308 1.34994 0
5.72321 3.77985 0
6.54391 2.19831 0
6.3827 3.08919 0
6.29497 4.68886 0
6.69565 5.84007 0
6.98386 6.98372 0
7.78743 0.967988 0
8.86281 0.572965 0
9.85577 0.0500138 0
7.61935 2.00511 0
6.83207 3.90591 0
7.27262 2.94803 0
7.3813 4.88774 0
7.83082 6.02039 0
8.72641 1.72758 0
9.77174 1.32991 0
8.42434 2.8389 0
7.98484 3.91787 0
8.54277 4.95342 0
9.52142 2.58791 0
9.10949 3.80266 0
CELLS 542 2168
3 2 0 4
3 0 1 7
3 4 0 7
3 1 5 8
3 7 1 8
3 3 2 13
3 13 2 4
3 11 3 14
3 14 3 13
3 13 4 15
3 4 7 16
3 15 4 16
3 5 6 17
3 8 5 17
3 6 9 18
3 17 6 18
3 7 8 19
3 16 7 19
3 8 17 20
3 19 8 20
3 9 10 23
3 18 9 23
3 10 21 24
3 23 10 24
3 12 11 25
3 25 11 14
3 26 12 27
3 27 12 25
3 14 13 29
3 29 13 15
3 25 14 30
3 30 14 29
3 29 15 31
3 15 16 33
3 31 15 33
3 16 19 34
3 33 16 34
3 17 18 35
3 20 17 35
3 18 23 36
3 35 18 36
3 19 20 37
3 34 19 37
3 20 35 38
3 37 20 38
3 21 22 39
3 24 21 39
3 22 32 40
3 39 22 40
3 23 24 41
3 36 23 41
3 24 39 42
3 41 24 42
3 27 25 44
3 44 25 30
3 28 26 45
3 45 26 27
3 45 27 46
3 46 27 44
3 47 28 48
3 48 28 45
3 30 29 50
3 50 29 31
3 44 30 51
3 51 30 50
3 50 31 52
3 31 33 52
3 32 43 53
3 40 32 53
3 53 43 54
3 33 34 55
3 34 37 55
3 33 55 52
3 35 36 56
3 38 35 56
3 36 41 57
3 56 36 57
3 37 38 58
3 38 56 58
3 37 58 55
3 39 40 59
3 42 39 59
3 40 53 60
3 59 40 60
3 41 42 61
3 57 41 61
3 42 59 62
3 61 42 62
3 43 63 54
3 46 44 64
3 64 44 51
3 48 45 65
3 65 45 46
3 65 46 66
3 66 46 64
3 49 47 67
3 67 47 48
3 67 48 68
3 68 48 65
3 69 49 70
3 70 49 67
3 52 55 72
3 64 51 73
3 51 50 73
3 50 52 73
3 73 52 74
3 74 52 72
3 53 54 75
3 60 53 75
3 54 63 76
3 54 76 77
3 75 54 77
3 55 58 78
3 72 55 78
3 72 78 79
3 56 57 80
3 57 61 80
3 56 80 58
3 58 80 81
3 78 58 81
3 59 60 82
3 62 59 82
3 60 75 83
3 82 60 83
3 61 62 84
3 62 82 84
3 61 84 80
3 63 85 76
3 66 64 86
3 64 73 86
3 68 65 87
3 87 65 66
3 87 66 86
3 70 67 88
3 88 67 68
3 88 68 89
3 89 68 87
3 71 69 90
3 90 69 70
3 90 70 91
3 91 70 88
3 92 71 93
3 93 71 90
3 74 72 94
3 94 72 79
3 86 73 95
3 95 73 74
3 95 74 96
3 96 74 94
3 97 86 95
3 76 85 99
3 75 77 100
3 83 75 100
3 76 99 101
3 77 76 101
3 77 101 102
3 100 77 102
3 94 79 103
3 78 81 104
3 79 78 104
3 79 104 103
3 80 84 105
3 81 80 105
3 81 105 106
3 104 81 106
3 82 83 107
3 83 100 107
3 82 107 84
3 84 107 108
3 105 84 108
3 85 109 99
3 89 87 110
3 87 86 110
3 110 86 97
3 91 88 111
3 111 88 89
3 111 89 110
3 93 90 112
3 112 90 91
3 112 91 113
3 113 91 111
3 98 92 114
3 114 92 93
3 114 93 115
3 115 93 112
3 116 98 114
3 117 103 118
3 96 94 119
3 94 103 119
3 119 103 117
3 97 95 120
3 120 95 96
3 120 96 119
3 121 110 97
3 121 97 122
3 122 97 120
3 123 119 117
3 124 98 116
3 99 109 125
3 99 125 126
3 101 99 126
3 100 102 127
3 100 127 107
3 101 126 128
3 102 101 128
3 102 128 127
3 104 106 129
3 104 129 103
3 103 129 118
3 105 108 130
3 106 105 130
3 106 130 129
3 107 127 131
3 108 107 131
3 108 131 132
3 108 132 130
3 109 134 125
3 125 134 133
3 113 111 135
3 111 110 135
3 135 110 121
3 115 112 136
3 136 112 113
3 136 113 135
3 116 114 137
3 137 114 115
3 137 115 138
3 138 115 136
3 139 124 116
3 139 116 140
3 140 116 137
3 141 135 121
3 118 129 142
3 118 142 143
3 117 118 143
3 123 117 143
3 122 120 144
3 120 119 144
3 144 119 123
3 141 121 145
3 145 121 122
3 145 122 144
3 146 141 145
3 147 144 123
3 147 123 148
3 143 148 123
3 150 124 139
3 149 150 139
3 131 127 151
3 125 133 152
3 126 125 152
3 126 152 153
3 128 126 153
3 128 153 154
3 128 154 127
3 127 154 151
3 152 133 155
3 130 132 156
3 130 156 129
3 129 156 142
3 131 151 157
3 132 131 157
3 132 157 156
3 156 158 142
3 157 151 159
3 133 160 155
3 134 161 133
3 133 161 160
3 138 136 162
3 136 135 162
3 162 135 141
3 140 137 163
3 163 137 138
3 163 138 162
3 149 139 164
3 164 139 140
3 164 140 165
3 165 140 163
3 166 149 164
3 167 162 141
3 167 141 146
3 142 158 168
3 143 142 168
3 143 168 148
3 146 145 169
3 145 144 169
3 169 144 147
3 170 167 146
3 170 146 169
3 171 169 147
3 171 147 148
3 171 148 172
3 168 172 148
3 173 149 166
3 174 150 149
3 173 174 149
3 154 175 151
3 151 175 159
3 152 155 176
3 153 152 176
3 153 176 177
3 153 177 154
3 154 177 175
3 155 160 178
3 155 178 179
3 176 155 179
3 156 157 180
3 156 180 158
3 157 159 181
3 157 181 180
3 158 180 182
3 158 182 168
3 159 175 183
3 159 183 181
3 175 184 183
3 160 186 178
3 178 186 185
3 161 187 160
3 160 187 186
3 165 163 188
3 163 162 188
3 188 162 167
3 166 164 189
3 189 164 165
3 189 165 188
3 190 173 166
3 190 166 191
3 191 166 189
3 192 188 167
3 192 167 170
3 193 192 170
3 182 194 168
3 194 172 168
3 193 170 195
3 170 169 195
3 195 169 171
3 196 195 171
3 196 171 172
3 194 197 172
3 197 198 172
3 198 196 172
3 200 173 190
3 199 200 190
3 201 174 173
3 200 201 173
3 176 179 202
3 177 176 202
3 177 202 175
3 175 202 184
3 178 185 203
3 178 203 179
3 179 203 202
3 203 185 204
3 202 205 184
3 183 206 181
3 180 181 206
3 180 206 182
3 182 206 194
3 183 184 207
3 205 207 184
3 183 207 206
3 185 208 204
3 186 209 185
3 185 209 208
3 187 210 186
3 186 210 209
3 191 189 211
3 189 188 211
3 211 188 192
3 199 190 212
3 212 190 191
3 212 191 211
3 213 199 212
3 214 211 192
3 214 192 193
3 215 214 193
3 215 193 195
3 206 216 194
3 216 197 194
3 216 217 197
3 215 195 218
3 218 195 196
3 198 218 196
3 217 219 197
3 219 218 198
3 197 219 198
3 220 199 213
3 221 200 199
3 220 221 199
3 222 201 200
3 221 222 200
3 203 204 223
3 203 223 202
3 202 223 205
3 204 208 224
3 204 224 223
3 205 223 225
3 205 225 207
3 207 225 226
3 207 226 206
3 226 216 206
3 208 228 224
3 224 228 227
3 209 229 208
3 229 228 208
3 210 230 209
3 209 230 229
3 213 212 231
3 212 211 231
3 231 211 214
3 232 220 213
3 232 213 231
3 233 231 214
3 233 214 215
3 234 233 215
3 234 215 218
3 226 235 216
3 235 217 216
3 235 236 217
3 217 236 219
3 237 234 218
3 237 218 219
3 236 238 219
3 238 237 219
3 240 220 232
3 239 240 232
3 241 221 220
3 240 241 220
3 242 222 221
3 241 242 221
3 224 227 243
3 224 243 223
3 223 243 225
3 225 243 244
3 225 244 226
3 226 244 235
3 227 245 243
3 228 246 227
3 227 246 245
3 229 247 228
3 228 247 246
3 230 248 229
3 229 248 247
3 239 232 249
3 232 231 249
3 249 231 233
3 250 249 233
3 250 233 234
3 237 250 234
3 244 251 235
3 235 251 236
3 251 252 236
3 236 252 238
3 252 253 238
3 253 250 237
3 253 237 238
3 254 239 249
3 255 240 239
3 254 255 239
3 256 241 240
3 255 256 240
3 257 242 241
3 256 257 241
3 245 258 243
3 243 258 244
3 244 258 251
3 245 259 258
3 246 260 245
3 245 260 259
3 247 261 246
3 246 261 260
3 248 262 247
3 247 262 261
3 254 249 263
3 263 249 250
3 253 263 250
3 258 264 251
3 251 264 252
3 264 265 252
3 265 263 253
3 252 265 253
3 266 254 263
3 267 255 254
3 266 267 254
3 268 256 255
3 267 268 255
3 269 257 256
3 268 269 256
3 259 270 258
3 270 264 258
3 260 271 259
3 259 271 270
3 261 272 260
3 260 272 271
3 262 273 261
3 273 272 261
3 270 274 264
3 275 266 263
3 275 263 265
3 274 276 264
3 276 265 264
3 276 277 265
3 277 275 265
3 278 267 266
3 275 278 266
3 279 268 267
3 278 279 267
3 280 269 268
3 279 280 268
3 271 281 270
3 270 281 274
3 272 282 271
3 271 282 281
3 273 283 272
3 272 283 282
3 281 284 274
3 274 284 276
3 285 278 275
3 277 285 275
3 284 286 276
3 286 285 277
3 276 286 277
3 287 279 278
3 285 287 278
3 288 280 279
3 287 288 279
3 282 289 281
3 281 289 284
3 283 290 282
3 282 290 289
3 289 291 284
3 284 291 286
3 291 292 286
3 292 287 285
3 286 292 285
3 293 288 287
3 292 293 287
3 290 294 289
3 289 294 291
3 294 295 291
3 295 293 292
3 291 295 292
CELL_TYPES 542
5
5
5
5
5
5
5
5
5
5
5
5
5
5
5
5
5
5
5
5
5
5
5
5
5
5
5
5
5
5
5
5
5
5
5
5
5
5
5
5
5
5
5
5
5
5
5
5
5
5
5
5
5
5
5
5
5
5
5
5
5
5
5
5
5
5
5
5
5
5
5
5
5
5
5
5
5
5
5
5
5
5
5
5
5
5
5
5
5
5
5
5
5
5
5
5
5
5
5
5
5
5
5
5
5
5
5
5
5
5
5
5
5
5
5
5
5
5
5
5
5
5
5
5
5
5
5
5
5
5
5
5
5
5
5
5
5
5
5
5
5
5
5
5
5
5
5
5
5
5
5
5
5
5
5
5
5
5
5
5
5
5
5
5
5
5
5
5
5
5
5
5
5
5
5
5
5
5
5
5
5
5
5
5
5
5
5
5
5
5
5
5
5
5
5
5
5
5
5
5
5
5
5
5
5
5
5
5
5
5
5
5
5
5
5
5
5
5
5
5
5
5
5
5
5
5
5
5
5
5
5
5
5
5
5
5
5
5
5
5
5
5
5
5
5
5
5
5
5
5
5
5
5
5
5
5
5
5
5
5
5
5
5
5
5
5
5
5
5
5
5
5
5
5
5
5
5
5
5
5
5
5
5
5
5
5
5
5
5
5
5
5
5
5
5
5
5
5
5
5
5
5
5
5
5
5
5
5
5
5
5
5
5
5
5
5
5
5
5
5
5
5
5
5
5
5
5
5
5
5
5
5
5
5
5
5
5
5
5
5
5
5
5
5
5
5
5
5
5
5
5
5
5
5
5
5
5
5
5
5
5
5
5
5
5
5
5
5
5
5
5
5
5
5
5
5
5
5
5
5
5
5
5
5
5
5
5
5
5
5
5
5
5
5
5
5
5
5
5
5
5
5
5
5
5
5
5
5
5
5
5
5
5
5
5
5
5
5
5
5
5
5
5
5
5
5
5
5
5
5
5
5
5
5
5
5
5
5
5
5
5
5
5
5
5
5
5
5
5
5
5
5
5
5
5
5
5
5
5
5
5
5
5
5
5
5
5
5
5
5
5
5
5
5
5
5
5
5
5
5
5
5
5
5
5
5
5
5
5
5
5
5
5
5
5
5
5
5
5
5
5
5
5
5
5
5
5
5
5
5
5
5
5
5
5
5
5
5
5
5
5
5
5
5
5
5
5
5
5
5
5
5
5
5
5
5
5
5
5
5
5
5
POINT_DATA 296
SCALARS concentrations float 4
LOOKUP_TABLE default
0 0.96132 0.160836 9.25887
0 0.961321 0.160584 9.96253
0 0.961319 0.160264 9.34611
0 0.961319 0.15957 9.15038
0 0.961324 0.0909054 0.00552607
0 0.961321 0.160227 9.23703
0 0.96132 0.159914 9.25633
0 0.961325 0.0909052 0.00648591
0 0.961325 0.0909053 0.00664122
0 0.961319 0.159813 9.22115
0 0.961319 0.16009 9.23968
0 0.961319 0.158904 9.16784
0 0.961319 0.158998 9.16999
0 0.961324 0.0909054 0.00538956
0 0.961324 0.0909046 0.00525197
0 0.961332 0.0909029 0.00505704
0 0.961332 0.0909021 0.00526502
0 0.961325 0.0909048 0.00564817
0 0.961324 0.090905 0.00546804
0 0.961333 0.0909015 0.00546508
0 0.961332 0.0909019 0.00533041
0 0.961318 0.161086 9.45525
0 0.961319 0.161878 9.42749
0 0.961324 0.0909049 0.00528744
0 0.961323 0.0909051 0.00526153
0 0.961324 0.0909044 0.00529072
0 0.961319 0.158515 9.12146
0 0.961323 0.0909046 0.00527516
0 0.961318 0.159055 9.17313
0 0.961332 0.090903 0.00497023
0 0.961332 0.0909023 0.0048084
0 0.961339 0.0908993 0.00431781
0 0.961319 0.159866 9.21182
0 0.961341 0.0908975 0.00412744
0 0.96134 0.0908989 0.00461637
0 0.961332 0.0909024 0.00506266
0 0.961332 0.0909027 0.00494426
0 0.961341 0.0908975 0.00431893
0 0.961339 0.0908998 0.00463003
0 0.961323 0.0909058 0.00523309
0 0.961324 0.0909067 0.00556329
0 0.961332 0.0909028 0.00483607
0 0.961332 0.0909029 0.00480982
0 0.96132 0.159136 9.23033
0 0.961332 0.090903 0.00492433
0 0.961323 0.0909048 0.00532806
0 0.961331 0.0909035 0.0049891
0 0.961317 0.158364 8.96611
0 0.961322 0.0909048 0.00479309
0 0.961318 0.158119 9.07611
0 0.96134 0.0908983 0.00405953
0 0.961339 0.0908999 0.00433395
0 0.961346 0.090891 0.0027418
0 0.961324 0.090906 0.00554039
0 0.961324 0.0909053 0.00550368
0 0.961346 0.0908908 0.00284309
0 0.961341 0.0908986 0.00422202
0 0.961339 0.0909002 0.00440689
0 0.961346 0.0908914 0.00291128
0 0.961332 0.0909031 0.00483472
0 0.961333 0.0909032 0.0049099
0 0.961341 0.0908993 0.00416793
0 0.961339 0.0909008 0.00442427
0 0.96132 0.158035 9.08837
0 0.96134 0.0908982 0.00399689
0 0.961331 0.0909033 0.00481472
0 0.961339 0.0909002 0.00430702
0 0.961322 0.0909042 0.00477598
0 0.961331 0.0909026 0.00462775
0 0.961319 0.157937 9.13534
0 0.961323 0.0909037 0.00516838
0 0.961319 0.158002 9.00779
0 0.96135 0.0908883 0.00223978
0 0.961346 0.0908913 0.00273036
0 0.961351 0.0908884 0.0022249
0 0.961333 0.0909033 0.00489753
0 0.961324 0.0909051 0.00456339
0 0.961333 0.0909033 0.00469594
0 0.961351 0.0908883 0.00226725
0 0.961354 0.0908872 0.00199965
0 0.961346 0.0908919 0.00286183
0 0.961351 0.0908888 0.00231273
0 0.961341 0.0908985 0.00399792
0 0.96134 0.0908996 0.00420197
0 0.961347 0.0908922 0.00285249
0 0.961319 0.158284 8.78835
0 0.961346 0.0908911 0.00267
0 0.96134 0.0908985 0.00396627
0 0.961331 0.0909028 0.00476131
0 0.961339 0.0909001 0.00425937
0 0.961323 0.0909036 0.00512388
0 0.961331 0.0909027 0.0048654
0 0.961319 0.157951 9.09777
0 0.961324 0.0909035 0.00504442
0 0.961355 0.0908864 0.00183996
0 0.96135 0.0908887 0.00224019
0 0.961355 0.0908872 0.0019489
0 0.961351 0.0908885 0.00221073
0 0.96132 0.158415 9.07918
0 0.961325 0.090905 0.00433989
0 0.961341 0.0908992 0.00406674
0 0.961333 0.090902 0.00431167
0 0.96134 0.0909006 0.00420934
0 0.961358 0.090884 0.00138179
0 0.961355 0.0908867 0.00188892
0 0.961351 0.0908892 0.00230682
0 0.961355 0.0908878 0.0020518
0 0.961347 0.0908925 0.00288963
0 0.961351 0.0908891 0.00225927
0 0.961321 0.157933 9.05787
0 0.961346 0.0908912 0.0026951
0 0.96134 0.0908988 0.00409285
0 0.961332 0.0909026 0.00486977
0 0.961339 0.0909007 0.00450142
0 0.961324 0.0909037 0.00511955
0 0.961332 0.0909024 0.00485632
0 0.961324 0.0909037 0.0051106
0 0.96136 0.0908827 0.00108359
0 0.96136 0.0908827 0.00107023
0 0.961358 0.0908838 0.00131077
0 0.961355 0.0908867 0.00185274
0 0.961351 0.0908884 0.00222387
0 0.961355 0.0908875 0.00202736
0 0.961361 0.0908817 0.000903538
0 0.96132 0.158215 9.11987
0 0.961327 0.090904 0.00537041
0 0.961334 0.0909011 0.00432568
0 0.961347 0.0908937 0.00306561
0 0.961342 0.0908997 0.00407175
0 0.961358 0.0908843 0.00138386
0 0.961356 0.0908871 0.00189551
0 0.961352 0.0908892 0.00227162
0 0.961356 0.0908871 0.00188751
0 0.961327 0.090904 0.00527388
0 0.961323 0.158004 9.52057
0 0.961346 0.0908912 0.00276173
0 0.961341 0.0908989 0.00420006
0 0.961332 0.0909024 0.00486884
0 0.96134 0.0909001 0.00444953
0 0.961325 0.0909039 0.00527958
0 0.961333 0.0909022 0.00488823
0 0.961351 0.0908884 0.00226194
0 0.961361 0.090882 0.000913056
0 0.961362 0.0908798 0.000480208
0 0.961358 0.0908837 0.00132485
0 0.961356 0.0908867 0.00191878
0 0.961355 0.0908876 0.00212946
0 0.961361 0.0908814 0.000940772
0 0.961362 0.0908784 0.000363018
0 0.961325 0.0909038 0.00543135
0 0.961321 0.15873 9.04723
0 0.961353 0.0908895 0.00233245
0 0.961335 0.090901 0.00454837
0 0.961342 0.0909004 0.00428135
0 0.961349 0.0908939 0.00310578
0 0.961335 0.0909022 0.00464799
0 0.961359 0.0908844 0.00139227
0 0.961357 0.0908868 0.0018491
0 0.961362 0.0908823 0.0010061
0 0.961356 0.0908895 0.00234684
0 0.961328 0.090904 0.00479486
0 0.961323 0.157958 8.98957
0 0.961347 0.0908911 0.00278763
0 0.961341 0.0908984 0.00416125
0 0.961333 0.0909024 0.00495527
0 0.96134 0.0908999 0.00447344
0 0.961333 0.0909027 0.00492505
0 0.961351 0.0908885 0.00233202
0 0.961363 0.0908786 0.00037735
0 0.961359 0.0908835 0.00138262
0 0.961356 0.0908871 0.00206763
0 0.961361 0.0908809 0.0009355
0 0.961363 0.0908787 0.000622891
0 0.961324 0.0909034 0.0049636
0 0.96132 0.157818 9.11028
0 0.961353 0.0908902 0.00248855
0 0.961343 0.0908989 0.00404658
0 0.961348 0.0908948 0.00330354
0 0.961336 0.0909029 0.00453978
0 0.961343 0.0908991 0.00399565
0 0.96136 0.0908838 0.00132092
0 0.961359 0.0908857 0.00168424
0 0.961362 0.090882 0.00106555
0 0.961357 0.0908881 0.00212161
0 0.961354 0.0908911 0.00265846
0 0.961336 0.0909027 0.00442357
0 0.961328 0.0909035 0.00435221
0 0.961324 0.157178 8.95444
0 0.961347 0.0908911 0.00281098
0 0.961342 0.0908982 0.00411648
0 0.961332 0.0909024 0.00468286
0 0.96134 0.0908998 0.0043266
0 0.961351 0.0908889 0.00240573
0 0.961356 0.090888 0.00226089
0 0.961362 0.090881 0.00095429
0 0.961359 0.0908838 0.00150615
0 0.961361 0.0908818 0.00117293
0 0.961362 0.0908822 0.00123287
0 0.961361 0.0908824 0.00129178
0 0.961332 0.0909024 0.0046565
0 0.961324 0.090903 0.00442993
0 0.961319 0.157935 8.99689
0 0.961349 0.0908927 0.00292188
0 0.961344 0.0908985 0.00384484
0 0.961343 0.0909007 0.00423524
0 0.961353 0.090891 0.00265473
0 0.96136 0.0908839 0.001434
0 0.961357 0.090888 0.00214882
0 0.961336 0.0909024 0.0045255
0 0.961329 0.0909036 0.00430123
0 0.961324 0.157327 8.5448
0 0.961347 0.0908909 0.00274619
0 0.961342 0.0908982 0.00398067
0 0.96134 0.090901 0.00450145
0 0.961352 0.0908888 0.00239866
0 0.961356 0.0908874 0.00216303
0 0.96136 0.0908845 0.00159727
0 0.96136 0.0908861 0.00193705
0 0.961359 0.0908846 0.0016809
0 0.961359 0.0908854 0.0018307
0 0.961332 0.0909027 0.00483536
0 0.961324 0.0909023 0.00465288
0 0.961319 0.156846 8.9885
0 0.961349 0.0908927 0.00292383
0 0.961344 0.0908982 0.00391535
0 0.961354 0.0908895 0.00242591
0 0.961358 0.0908867 0.00197153
0 0.961343 0.0908994 0.00423206
0 0.961336 0.0909029 0.00482717
0 0.961329 0.0909041 0.00513134
0 0.961324 0.158748 9.13423
0 0.961347 0.0908909 0.00273852
0 0.961342 0.090899 0.00421737
0 0.961352 0.0908886 0.00236863
0 0.961356 0.0908882 0.00233111
0 0.961357 0.0908875 0.00215423
0 0.961357 0.090888 0.00227884
0 0.961357 0.0908878 0.00227056
0 0.961356 0.0908887 0.00240921
0 0.961341 0.0909003 0.00452816
0 0.961333 0.0909028 0.00494343
0 0.961325 0.0909024 0.00491763
0 0.96132 0.156154 8.85388
0 0.961349 0.0908914 0.0027716
0 0.961354 0.0908884 0.00226475
0 0.961344 0.0908983 0.00406753
0 0.961336 0.090903 0.00490805
0 0.961328 0.0909039 0.00517614
0 0.961324 0.158809 9.12341
0 0.961348 0.090891 0.00280611
0 0.961352 0.0908888 0.00242013
0 0.961353 0.090888 0.00223078
0 0.961353 0.0908884 0.00231983
0 0.961352 0.0908887 0.00238101
0 0.961342 0.0908984 0.00419577
0 0.961333 0.0909024 0.00492154
0 0.961325 0.090903 0.00507786
0 0.961321 0.157127 8.94653
0 0.961349 0.0908916 0.00285252
0 0.961343 0.0909 0.00440172
0 0.961335 0.0909021 0.0047445
0 0.961327 0.0909033 0.00489497
0 0.961323 0.157566 8.97531
0 0.961348 0.0908913 0.00285953
0 0.961349 0.0908912 0.00281082
0 0.961348 0.0908911 0.00281121
0 0.961341 0.0909 0.004479
0 0.961334 0.0909021 0.00484742
0 0.961326 0.090903 0.00506946
0 0.961321 0.157742 9.03408
0 0.961344 0.0908986 0.00416
0 0.961335 0.0909019 0.00472941
0 0.961327 0.0909031 0.00492287
0 0.961323 0.157055 9.04642
0 0.961342 0.0909003 0.00449125
0 0.961343 0.0908985 0.00418736
0 0.961343 0.0908986 0.00419232
0 0.961342 0.0909002 0.00448826
0 0.961334 0.0909025 0.00489328
0 0.961326 0.0909026 0.00492746
0 0.961321 0.157166 8.95691
0 0.961335 0.0909024 0.00484769
0 0.961327 0.0909032 0.0049352
0 0.961323 0.157483 8.96628
0 0.961335 0.0909026 0.0048911
0 0.961334 0.0909025 0.00487465
0 0.961334 0.0909025 0.0048678
0 0.961326 0.0909024 0.00482168
0 0.961321 0.155367 8.76986
0 0.961327 0.0909032 0.00501665
0 0.961322 0.157455 8.97893
0 0.961326 0.090903 0.0049689
0 0.961326 0.0909027 0.00487541
0 0.961321 0.15615 8.90974
0 0.961322 0.157551 9.00161
0 0.961322 0.15706 8.93162
VECTORS fa_u float
0.00855545 0.00353991 0
0.00862799 0.00498095 0
0.00902836 0.00241629 0
0.00907318 0.00118613 0
5.13428e-06 2.04369e-06 0
0.00732417 0.00562844 0
0.00654689 0.00654354 0
5.41939e-06 3.56332e-06 0
5.85202e-06 3.14002e-06 0
0.0056109 0.0073176 0
0.00461908 0.00800224 0
0.00916784 -6.59091e-06 0
0.00909139 -0.00119809 0
5.26251e-06 1.16332e-06 0
5.24618e-06 2.46503e-07 0
4.82723e-06 1.50712e-06 0
4.77701e-06 2.21372e-06 0
4.3763e-06 3.57068e-06 0
3.8819e-06 3.85103e-06 0
4.67649e-06 2.82799e-06 0
4.31726e-06 3.12643e-06 0
0.00361072 0.00873867 0
0.00243336 0.00910803 0
2.95214e-06 4.38656e-06 0
2.63516e-06 4.55407e-06 0
5.27932e-06 -3.47075e-07 0
0.00880814 -0.00237017 0
5.16132e-06 -1.08996e-06 0
0.00847861 -0.00350134 0
4.94076e-06 5.40404e-07 0
4.80837e-06 -1.83642e-08 0
4.24051e-06 8.13366e-07 0
0.00120594 0.00913254 0
3.86958e-06 1.436e-06 0
4.11966e-06 2.0831e-06 0
3.67513e-06 3.48194e-06 0
3.13003e-06 3.82736e-06 0
3.56703e-06 2.43505e-06 0
3.52464e-06 3.00234e-06 0
1.55211e-06 4.99762e-06 0
1.1109e-06 5.45125e-06 0
2.45591e-06 4.16606e-06 0
1.95055e-06 4.39656e-06 0
-9.17987e-07 0.00923033 0
4.87653e-06 -6.84447e-07 0
5.05826e-06 -1.674e-06 0
4.82699e-06 -1.26149e-06 0
0.00776537 -0.00448222 0
4.42095e-06 -1.85174e-06 0
0.00719414 -0.00553354 0
4.05679e-06 1.49335e-07 0
4.32516e-06 -2.7603e-07 0
2.70159e-06 4.67838e-07 0
3.17728e-07 5.53127e-06 0
-1.38264e-07 5.50194e-06 0
2.57535e-06 1.20447e-06 0
2.82588e-06 3.13685e-06 0
2.48597e-06 3.63876e-06 0
2.23096e-06 1.87038e-06 0
1.27893e-06 4.66249e-06 0
6.65787e-07 4.86455e-06 0
1.88445e-06 3.71759e-06 0
1.47847e-06 4.16993e-06 0
-0.00116174 0.00901381 0
3.92267e-06 -7.66716e-07 0
4.42645e-06 -1.8942e-06 0
4.04496e-06 -1.47944e-06 0
3.66998e-06 -3.05634e-06 0
3.96179e-06 -2.39172e-06 0
0.00646183 -0.00645749 0
3.72999e-06 -3.57761e-06 0
0.00548652 -0.00714412 0
2.15177e-06 6.21692e-07 0
2.71631e-06 -2.76607e-07 0
2.22419e-06 5.6216e-08 0
-6.98133e-08 4.89704e-06 0
-2.27483e-07 4.55771e-06 0
-4.55319e-07 4.67382e-06 0
1.92903e-06 1.19133e-06 0
1.83429e-06 7.96235e-07 0
1.68059e-06 2.3164e-06 0
1.60903e-06 1.66125e-06 0
7.88184e-07 3.91946e-06 0
2.17542e-07 4.19634e-06 0
9.91015e-07 2.67481e-06 0
-0.00227386 0.00848909 0
2.48413e-06 -9.78767e-07 0
3.49293e-06 -1.87903e-06 0
3.6052e-06 -3.11008e-06 0
3.46702e-06 -2.47426e-06 0
3.22254e-06 -3.98364e-06 0
3.30109e-06 -3.5742e-06 0
0.00454934 -0.00787864 0
2.7357e-06 -4.23817e-06 0
1.81541e-06 2.9959e-07 0
2.16055e-06 -5.92023e-07 0
1.9346e-06 -2.35669e-07 0
1.89911e-06 -1.13169e-06 0
0.00347872 -0.0083863 0
-1.9374e-06 3.88344e-06 0
-2.58591e-07 4.05851e-06 0
-1.19057e-06 4.14404e-06 0
-8.7924e-07 4.11649e-06 0
1.27638e-06 5.29344e-07 0
1.4615e-06 1.19667e-06 0
1.12536e-06 2.01371e-06 0
1.2209e-06 1.64902e-06 0
2.59472e-07 2.87795e-06 0
5.72185e-07 2.18561e-06 0
-0.00349304 0.00835725 0
2.14047e-06 -1.63768e-06 0
2.96164e-06 -2.8249e-06 0
2.81336e-06 -3.97487e-06 0
2.81139e-06 -3.51552e-06 0
2.07234e-06 -4.68137e-06 0
2.32848e-06 -4.26169e-06 0
1.55936e-06 -4.86689e-06 0
1.07343e-06 1.48004e-07 0
8.67864e-07 6.26255e-07 0
1.29996e-06 -1.68032e-07 0
1.70491e-06 -7.25207e-07 0
1.51483e-06 -1.62815e-06 0
1.57206e-06 -1.28017e-06 0
8.29059e-07 -3.59222e-07 0
0.00235886 -0.00880953 0
-2.69065e-06 4.64776e-06 0
-1.8456e-06 3.91219e-06 0
-5.20085e-07 3.02117e-06 0
-1.41641e-06 3.81745e-06 0
8.29068e-07 1.10803e-06 0
6.58971e-07 1.77727e-06 0
-6.13251e-08 2.27079e-06 0
1.9887e-07 1.877e-06 0
-2.67094e-06 4.54752e-06 0
-0.00475191 0.00824989 0
1.65645e-06 -2.20982e-06 0
2.18958e-06 -3.58416e-06 0
1.70229e-06 -4.56156e-06 0
1.82799e-06 -4.05669e-06 0
7.04298e-07 -5.23239e-06 0
1.13532e-06 -4.75456e-06 0
1.04182e-06 -2.00773e-06 0
3.31797e-07 8.50636e-07 0
4.34712e-07 2.04023e-07 0
1.01697e-06 -8.49128e-07 0
1.11284e-06 -1.5631e-06 0
7.1052e-07 -2.00743e-06 0
4.80087e-07 -8.09054e-07 0
9.02479e-08 -3.51621e-07 0
4.30248e-07 -5.41428e-06 0
0.00117519 -0.00897058 0
-6.87573e-07 2.2288e-06 0
-2.29832e-06 3.92497e-06 0
-1.90984e-06 3.83177e-06 0
-1.15758e-06 2.88199e-06 0
-2.73188e-06 3.76041e-06 0
1.60787e-07 1.38295e-06 0
-3.3725e-07 1.81809e-06 0
-1.71158e-07 9.91439e-07 0
-9.53601e-07 2.14437e-06 0
-3.13805e-06 3.62538e-06 0
-0.00546209 0.00713988 0
1.01489e-06 -2.59632e-06 0
1.1916e-06 -3.98699e-06 0
5.37984e-07 -4.92598e-06 0
7.61728e-07 -4.40811e-06 0
8.26736e-08 -4.92435e-06 0
4.85377e-07 -2.28095e-06 0
-2.58389e-07 2.75006e-07 0
4.13512e-07 -1.31933e-06 0
2.00699e-07 -2.05787e-06 0
-5.51409e-08 -9.33874e-07 0
-5.17426e-07 -3.4679e-07 0
7.16212e-09 -4.9636e-06 0
2.22787e-05 -0.00911025 0
-1.37874e-06 2.0717e-06 0
-2.21175e-06 3.38866e-06 0
-1.8448e-06 2.74045e-06 0
-3.26344e-06 3.15588e-06 0
-2.6438e-06 2.99592e-06 0
-4.96887e-07 1.2239e-06 0
-8.66002e-07 1.44454e-06 0
-7.42732e-07 7.64038e-07 0
-1.37268e-06 1.6177e-06 0
-1.85241e-06 1.90682e-06 0
-3.52783e-06 2.66877e-06 0
-3.04409e-06 3.1105e-06 0
-0.0063296 0.00633389 0
3.59754e-07 -2.78786e-06 0
2.48233e-07 -4.10899e-06 0
-6.19983e-07 -4.64164e-06 0
-3.21945e-07 -4.31461e-06 0
-5.99602e-08 -2.40499e-06 0
-3.80164e-07 -2.2287e-06 0
-9.1032e-07 2.86333e-07 0
-3.08878e-07 -1.47414e-06 0
-5.70664e-07 -1.02474e-06 0
-1.20782e-06 -2.4723e-07 0
-1.02933e-06 -7.8049e-07 0
-1.41165e-06 -4.43737e-06 0
-8.23867e-07 -4.35265e-06 0
-0.00115459 -0.0089225 0
-2.04253e-06 2.08936e-06 0
-2.9632e-06 2.44995e-06 0
-3.54787e-06 2.31298e-06 0
-2.13359e-06 1.57967e-06 0
-1.19054e-06 7.99365e-07 0
-1.80752e-06 1.16203e-06 0
-4.01506e-06 2.08794e-06 0
-3.79708e-06 2.02058e-06 0
-0.00678055 0.00519979 0
-3.20679e-07 -2.72741e-06 0
-8.56698e-07 -3.88739e-06 0
-1.66035e-06 -4.18405e-06 0
-6.85279e-07 -2.29869e-06 0
-8.91401e-07 -1.97081e-06 0
-1.56207e-06 3.33469e-07 0
-1.92312e-06 -2.31897e-07 0
-1.05425e-06 -1.30919e-06 0
-1.63021e-06 -8.33002e-07 0
-2.1074e-06 -4.35197e-06 0
-2.01937e-06 -4.19183e-06 0
-0.00233005 -0.00868125 0
-2.47271e-06 1.56027e-06 0
-3.53436e-06 1.6847e-06 0
-2.23018e-06 9.54658e-07 0
-1.8944e-06 5.46063e-07 0
-4.04004e-06 1.2603e-06 0
-4.48236e-06 1.79164e-06 0
-4.77085e-06 1.88935e-06 0
-0.00792192 0.00454724 0
-1.02003e-06 -2.54146e-06 0
-1.96447e-06 -3.7319e-06 0
-1.20548e-06 -2.03893e-06 0
-1.43613e-06 -1.83619e-06 0
-2.15278e-06 7.89347e-08 0
-2.22762e-06 -4.80435e-07 0
-1.78862e-06 -1.39866e-06 0
-2.19837e-06 -9.85624e-07 0
-2.64994e-06 -3.6718e-06 0
-2.5101e-06 -4.25875e-06 0
-2.31095e-06 -4.3408e-06 0
-0.00339904 -0.00817543 0
-2.6416e-06 8.38904e-07 0
-2.23046e-06 3.92637e-07 0
-4.02095e-06 6.13837e-07 0
-4.78352e-06 1.09859e-06 0
-4.86021e-06 1.78066e-06 0
-0.00842595 0.00349858 0
-1.70642e-06 -2.22764e-06 0
-1.72312e-06 -1.69939e-06 0
-2.22319e-06 -1.83821e-07 0
-2.20114e-06 -7.32523e-07 0
-2.03068e-06 -1.2432e-06 0
-2.86794e-06 -3.06257e-06 0
-3.11131e-06 -3.81331e-06 0
-2.94592e-06 -4.13597e-06 0
-0.00447628 -0.00774619 0
-2.84786e-06 1.62938e-07 0
-4.39689e-06 2.06039e-07 0