# vtk DataFile Version 2.0
CellBP Time: 3.12
ASCII
DATASET UNSTRUCTURED_GRID
POINTS 296 double
-9.03486 -3.71308 0
-8.46604 -4.86679 0
-9.4486 -2.49513 0
-9.7002 -1.23365 0
-8.35788 -2.81881 0
-7.75164 -5.93644 0
-6.90356 -6.9036 0
-7.91753 -3.87486 0
-7.34295 -4.86803 0
-5.93664 -7.75192 0
-4.86693 -8.46631 0
-9.78469 0.0499993 0
-9.70052 1.3337 0
-8.65799 -1.684 0
-8.78663 -0.529642 0
-7.59 -2.00421 0
-7.22605 -2.90659 0
-6.63793 -5.77913 0
-5.82266 -6.5972 0
-6.79057 -3.88907 0
-6.22086 -4.67612 0
-3.71309 -9.03471 0
-2.49488 -9.44751 0
-4.90669 -7.30914 0
-3.91318 -7.88659 0
-8.79309 0.643423 0
-9.45036 2.5956 0
-8.62361 1.77415 0
-9.03604 3.81354 0
-7.74461 -0.929018 0
-7.79485 0.080261 0
-6.95285 -1.31593 0
-1.23354 -9.70005 0
-6.44176 -2.15321 0
-6.31966 -3.05626 0
-5.53679 -5.47482 0
-4.79613 -6.11576 0
-5.65929 -3.75717 0
-5.26964 -4.5618 0
-2.8663 -8.36432 0
-1.77864 -8.64064 0
-3.92833 -6.72388 0
-3.05676 -7.15296 0
0.0500417 -9.78449 0
-7.70585 1.14357 0
-8.33895 2.91555 0
-7.55225 2.11207 0
-8.4674 4.96756 0
-7.88043 3.97842 0
-7.75289 6.03739 0
-6.77901 -0.396874 0
-6.95687 0.552573 0
-5.77166 -1.00345 0
-0.590862 -8.81014 0
0.565712 -8.77134 0
-5.30336 -2.48038 0
-4.49218 -5.09598 0
-3.90269 -5.7756 0
-4.43912 -3.80492 0
-2.06252 -7.56235 0
-1.13554 -7.78626 0
-2.99469 -6.10237 0
-2.30914 -6.62014 0
1.33379 -9.70124 0
-6.6898 1.42212 0
-7.17257 3.11828 0
-6.65961 2.37313 0
-7.29513 4.98893 0
-6.71846 4.00329 0
-6.90463 7.00465 0
-6.57288 5.8945 0
-5.93745 7.85303 0
-4.45329 -1.18111 0
-5.81488 0.513783 0
-4.65636 -0.0103776 0
0.00851922 -7.84856 0
1.73867 -8.64432 0
0.94902 -7.76391 0
-4.03868 -2.40648 0
-3.48568 -1.39125 0
-3.29467 -4.80558 0
-3.26601 -3.26792 0
-1.37866 -6.67585 0
-0.508771 -7.02537 0
-1.97565 -5.53732 0
2.59555 -9.45022 0
-5.50763 2.03703 0
-6.09509 3.0724 0
-6.1055 4.86997 0
-5.76211 3.99174 0
-5.76171 6.71762 0
-5.45253 5.61978 0
-4.86769 8.56772 0
-4.83883 7.40513 0
-3.50164 -0.424315 0
-4.44951 1.2491 0
-3.71162 0.592104 0
-4.06237 2.31993 0
-3.71371 9.13646 0
2.86281 -8.33347 0
0.419717 -6.7959 0
2.02217 -7.52642 0
1.30618 -6.90608 0
-2.44476 -0.873842 0
-2.83849 -2.13122 0
-2.29451 -4.09758 0
-2.32574 -2.97373 0
-0.442407 -5.86154 0
-1.22278 -4.49937 0
3.8138 -9.03671 0
-4.79011 3.39202 0
-5.08833 4.5945 0
-4.64756 6.28197 0
-4.53924 5.36017 0
-3.84407 7.99406 0
-3.82708 6.84633 0
-2.78356 8.4236 0
-1.6491 -0.137898 0
-1.45031 -0.890613 0
-2.48921 0.507284 0
-3.25377 1.44422 0
-3.23921 3.31675 0
-2.91112 2.37189 0
-1.35515 0.627134 0
-2.49553 9.55012 0
3.93305 -7.88769 0
2.96481 -7.15839 0
0.954161 -5.82245 0
2.07451 -6.41607 0
-1.68304 -1.99214 0
-1.4345 -3.27793 0
0.0902283 -4.74728 0
-0.566201 -3.69461 0
4.93262 -7.3195 0
4.96768 -8.46769 0
-3.77724 4.55197 0
-3.73509 5.75266 0
-2.88825 7.29058 0
-3.00998 6.35432 0
-1.66272 8.73452 0
-1.9403 7.62013 0
-2.33852 4.05194 0
-0.730754 -1.32729 0
-0.836921 -0.257628 0
-1.93628 1.68085 0
-2.12587 2.87599 0
-1.30664 3.54489 0
-0.869487 1.35088 0
-0.282373 0.456064 0
-0.533573 8.8726 0
-1.23368 9.80081 0
1.11286 -4.57491 0
3.91054 -6.71801 0
2.98821 -6.09536 0
2.11804 -5.42542 0
4.78496 -6.20604 0
-0.558876 -2.47692 0
0.495139 -3.46402 0
0.0535563 -1.61054 0
1.48199 -3.68238 0
5.86783 -6.61542 0
6.03751 -7.75305 0
-2.47589 5.34895 0
-2.13067 6.53513 0
-0.904171 7.80418 0
-1.27248 6.9328 0
0.0862157 7.88129 0
-1.14453 4.49503 0
0.150326 -0.617666 0
-0.797459 2.48862 0
-0.331662 3.60095 0
0.0631137 1.51279 0
0.741467 0.47344 0
0.646861 8.87529 0
0.05008 9.88552 0
2.3812 -4.2856 0
3.85961 -5.64108 0
3.00176 -5.21329 0
5.57448 -5.49253 0
4.6916 -5.28371 0
0.629705 -2.29347 0
1.25625 -2.9514 0
0.757525 -1.39151 0
2.16449 -3.13605 0
2.99403 -3.47688 0
6.15603 -4.79245 0
6.65649 -5.77009 0
7.00512 -6.90511 0
-1.01973 5.82095 0
-0.37266 6.88443 0
1.12278 7.77062 0
0.558047 7.08072 0
-0.000762987 4.72559 0
0.607048 3.8281 0
1.33898 -0.641922 0
0.539134 2.6512 0
0.966135 1.57501 0
1.9103 0.213878 0
1.61485 1.06508 0
2.12972 7.58472 0
1.79948 8.71368 0
1.33387 9.80142 0
3.82326 -4.3521 0
5.11729 -4.44964 0
5.84661 -3.93572 0
3.78439 -3.20139 0
1.8124 -1.88274 0
3.01942 -2.57412 0
6.78447 -3.9485 0
7.38264 -4.89758 0
7.8533 -5.93775 0
0.483416 5.88228 0
1.42839 6.74294 0
2.37472 6.67017 0
1.21011 4.55667 0
1.48831 3.39794 0
2.43598 -0.692071 0
2.82829 0.142615 0
1.78903 2.16301 0
2.61211 1.15024 0
3.07256 7.17139 0
2.90473 8.3783 0
2.59595 9.55132 0
4.91198 -3.32835 0
6.12173 -3.1092 0
4.17338 -2.27553 0
3.24477 -1.50306 0
6.7326 -2.31346 0
7.23345 -3.04311 0
7.96642 -3.91299 0
8.5672 -4.86749 0
2.02392 5.60068 0
3.08709 6.15478 0
2.36422 4.12744 0
2.42035 3.06122 0
3.52608 -0.460911 0
3.61613 0.613358 0
2.96217 2.28834 0
3.54603 1.52545 0
4.01309 5.89945 0
3.98544 6.79483 0
3.97426 7.94062 0
3.81439 9.13808 0
5.56983 -1.91649 0
4.50989 -1.12976 0
6.71551 -1.33641 0
7.59442 -2.03691 0
8.39926 -2.86206 0
9.13613 -3.71354 0
3.41981 4.87799 0
3.33953 3.38592 0
4.69203 0.130095 0
4.51992 1.31019 0
4.06601 2.44421 0
4.57187 5.15394 0
4.84517 6.19267 0
4.98192 7.38264 0
4.96802 8.56835 0
5.88484 -0.434994 0
7.01296 -0.488378 0
7.76193 -1.0856 0
8.68744 -1.74645 0
9.55066 -2.4956 0
4.5536 3.82855 0
5.81929 1.09887 0
5.37269 2.53561 0
5.38197 4.62221 0
5.61418 5.52552 0
5.89924 6.67421 0
6.03753 7.8531 0
6.84846 0.463694 0
7.85618 -0.025646 0
8.86349 -0.584533 0
9.8018 -1.23382 0
6.96311 1.34995 0
5.72323 3.77986 0
6.54394 2.19832 0
6.38272 3.0892 0
6.295 4.68888 0
6.69568 5.84009 0
7.00522 7.00511 0
7.78747 0.967992 0
8.86284 0.572967 0
9.88603 0.0500042 0
7.61938 2.00512 0
6.8321 3.90592 0
7.27265 2.94804 0
7.38133 4.88775 0
7.85461 6.03866 0
8.72644 1.72759 0
9.80175 1.33386 0
8.42437 2.83891 0
7.98487 3.91789 0
8.56877 4.9684 0
9.55067 2.59573 0
9.13741 3.8142 0
CELLS 542 2168
3 2 0 4
3 0 1 7
3 4 0 7
3 1 5 8
3 7 1 8
3 3 2 13
3 13 2 4
3 11 3 14
3 14 3 13
3 13 4 15
3 4 7 16
3 15 4 16
3 5 6 17
3 8 5 17
3 6 9 18
3 17 6 18
3 7 8 19
3 16 7 19
3 8 17 20
3 19 8 20
3 9 10 23
3 18 9 23
3 10 21 24
3 23 10 24
3 12 11 25
3 25 11 14
3 26 12 27
3 27 12 25
3 14 13 29
3 29 13 15
3 25 14 30
3 30 14 29
3 29 15 31
3 15 16 33
3 31 15 33
3 16 19 34
3 33 16 34
3 17 18 35
3 20 17 35
3 18 23 36
3 35 18 36
3 19 20 37
3 34 19 37
3 20 35 38
3 37 20 38
3 21 22 39
3 24 21 39
3 22 32 40
3 39 22 40
3 23 24 41
3 36 23 41
3 24 39 42
3 41 24 42
3 27 25 44
3 44 25 30
3 28 26 45
3 45 26 27
3 45 27 46
3 46 27 44
3 47 28 48
3 48 28 45
3 30 29 50
3 50 29 31
3 44 30 51
3 51 30 50
3 50 31 52
3 31 33 52
3 32 43 53
3 40 32 53
3 53 43 54
3 33 34 55
3 34 37 55
3 33 55 52
3 35 36 56
3 38 35 56
3 36 41 57
3 56 36 57
3 37 38 58
3 38 56 58
3 37 58 55
3 39 40 59
3 42 39 59
3 40 53 60
3 59 40 60
3 41 42 61
3 57 41 61
3 42 59 62
3 61 42 62
3 43 63 54
3 46 44 64
3 64 44 51
3 48 45 65
3 65 45 46
3 65 46 66
3 66 46 64
3 49 47 67
3 67 47 48
3 67 48 68
3 68 48 65
3 69 49 70
3 70 49 67
3 52 55 72
3 64 51 73
3 51 50 73
3 50 52 73
3 73 52 74
3 74 52 72
3 53 54 75
3 60 53 75
3 54 63 76
3 54 76 77
3 75 54 77
3 55 58 78
3 72 55 78
3 72 78 79
3 56 57 80
3 57 61 80
3 56 80 58
3 58 80 81
3 78 58 81
3 59 60 82
3 62 59 82
3 60 75 83
3 82 60 83
3 61 62 84
3 62 82 84
3 61 84 80
3 63 85 76
3 66 64 86
3 64 73 86
3 68 65 87
3 87 65 66
3 87 66 86
3 70 67 88
3 88 67 68
3 88 68 89
3 89 68 87
3 71 69 90
3 90 69 70
3 90 70 91
3 91 70 88
3 92 71 93
3 93 71 90
3 74 72 94
3 94 72 79
3 86 73 95
3 95 73 74
3 95 74 96
3 96 74 94
3 97 86 95
3 76 85 99
3 75 77 100
3 83 75 100
3 76 99 101
3 77 76 101
3 77 101 102
3 100 77 102
3 94 79 103
3 78 81 104
3 79 78 104
3 79 104 103
3 80 84 105
3 81 80 105
3 81 105 106
3 104 81 106
3 82 83 107
3 83 100 107
3 82 107 84
3 84 107 108
3 105 84 108
3 85 109 99
3 89 87 110
3 87 86 110
3 110 86 97
3 91 88 111
3 111 88 89
3 111 89 110
3 93 90 112
3 112 90 91
3 112 91 113
3 113 91 111
3 98 92 114
3 114 92 93
3 114 93 115
3 115 93 112
3 116 98 114
3 117 103 118
3 96 94 119
3 94 103 119
3 119 103 117
3 97 95 120
3 120 95 96
3 120 96 119
3 121 110 97
3 121 97 122
3 122 97 120
3 123 119 117
3 124 98 116
3 99 109 125
3 99 125 126
3 101 99 126
3 100 102 127
3 100 127 107
3 101 126 128
3 102 101 128
3 102 128 127
3 104 106 129
3 104 129 103
3 103 129 118
3 105 108 130
3 106 105 130
3 106 130 129
3 107 127 131
3 108 107 131
3 108 131 132
3 108 132 130
3 109 134 125
3 125 134 133
3 113 111 135
3 111 110 135
3 135 110 121
3 115 112 136
3 136 112 113
3 136 113 135
3 116 114 137
3 137 114 115
3 137 115 138
3 138 115 136
3 139 124 116
3 139 116 140
3 140 116 137
3 141 135 121
3 118 129 142
3 118 142 143
3 117 118 143
3 123 117 143
3 122 120 144
3 120 119 144
3 144 119 123
3 141 121 145
3 145 121 122
3 145 122 144
3 146 141 145
3 147 144 123
3 147 123 148
3 143 148 123
3 150 124 139
3 149 150 139
3 131 127 151
3 125 133 152
3 126 125 152
3 126 152 153
3 128 126 153
3 128 153 154
3 128 154 127
3 127 154 151
3 152 133 155
3 130 132 156
3 130 156 129
3 129 156 142
3 131 151 157
3 132 131 157
3 132 157 156
3 156 158 142
3 157 151 159
3 133 160 155
3 134 161 133
3 133 161 160
3 138 136 162
3 136 135 162
3 162 135 141
3 140 137 163
3 163 137 138
3 163 138 162
3 149 139 164
3 164 139 140
3 164 140 165
3 165 140 163
3 166 149 164
3 167 162 141
3 167 141 146
3 142 158 168
3 143 142 168
3 143 168 148
3 146 145 169
3 145 144 169
3 169 144 147
3 170 167 146
3 170 146 169
3 171 169 147
3 171 147 148
3 171 148 172
3 168 172 148
3 173 149 166
3 174 150 149
3 173 174 149
3 154 175 151
3 151 175 159
3 152 155 176
3 153 152 176
3 153 176 177
3 153 177 154
3 154 177 175
3 155 160 178
3 155 178 179
3 176 155 179
3 156 157 180
3 156 180 158
3 157 159 181
3 157 181 180
3 158 180 182
3 158 182 168
3 159 175 183
3 159 183 181
3 175 184 183
3 160 186 178
3 178 186 185
3 161 187 160
3 160 187 186
3 165 163 188
3 163 162 188
3 188 162 167
3 166 164 189
3 189 164 165
3 189 165 188
3 190 173 166
3 190 166 191
3 191 166 189
3 192 188 167
3 192 167 170
3 193 192 170
3 182 194 168
3 194 172 168
3 193 170 195
3 170 169 195
3 195 169 171
3 196 195 171
3 196 171 172
3 194 197 172
3 197 198 172
3 198 196 172
3 200 173 190
3 199 200 190
3 201 174 173
3 200 201 173
3 176 179 202
3 177 176 202
3 177 202 175
3 175 202 184
3 178 185 203
3 178 203 179
3 179 203 202
3 203 185 204
3 202 205 184
3 183 206 181
3 180 181 206
3 180 206 182
3 182 206 194
3 183 184 207
3 205 207 184
3 183 207 206
3 185 208 204
3 186 209 185
3 185 209 208
3 187 210 186
3 186 210 209
3 191 189 211
3 189 188 211
3 211 188 192
3 199 190 212
3 212 190 191
3 212 191 211
3 213 199 212
3 214 211 192
3 214 192 193
3 215 214 193
3 215 193 195
3 206 216 194
3 216 197 194
3 216 217 197
3 215 195 218
3 218 195 196
3 198 218 196
3 217 219 197
3 219 218 198
3 197 219 198
3 220 199 213
3 221 200 199
3 220 221 199
3 222 201 200
3 221 222 200
3 203 204 223
3 203 223 202
3 202 223 205
3 204 208 224
3 204 224 223
3 205 223 225
3 205 225 207
3 207 225 226
3 207 226 206
3 226 216 206
3 208 228 224
3 224 228 227
3 209 229 208
3 229 228 208
3 210 230 209
3 209 230 229
3 213 212 231
3 212 211 231
3 231 211 214
3 232 220 213
3 232 213 231
3 233 231 214
3 233 214 215
3 234 233 215
3 234 215 218
3 226 235 216
3 235 217 216
3 235 236 217
3 217 236 219
3 237 234 218
3 237 218 219
3 236 238 219
3 238 237 219
3 240 220 232
3 239 240 232
3 241 221 220
3 240 241 220
3 242 222 221
3 241 242 221
3 224 227 243
3 224 243 223
3 223 243 225
3 225 243 244
3 225 244 226
3 226 244 235
3 227 245 243
3 228 246 227
3 227 246 245
3 229 247 228
3 228 247 246
3 230 248 229
3 229 248 247
3 239 232 249
3 232 231 249
3 249 231 233
3 250 249 233
3 250 233 234
3 237 250 234
3 244 251 235
3 235 251 236
3 251 252 236
3 236 252 238
3 252 253 238
3 253 250 237
3 253 237 238
3 254 239 249
3 255 240 239
3 254 255 239
3 256 241 240
3 255 256 240
3 257 242 241
3 256 257 241
3 245 258 243
3 243 258 244
3 244 258 251
3 245 259 258
3 246 260 245
3 245 260 259
3 247 261 246
3 246 261 260
3 248 262 247
3 247 262 261
3 254 249 263
3 263 249 250
3 253 263 250
3 258 264 251
3 251 264 252
3 264 265 252
3 265 263 253
3 252 265 253
3 266 254 263
3 267 255 254
3 266 267 254
3 268 256 255
3 267 268 255
3 269 257 256
3 268 269 256
3 259 270 258
3 270 264 258
3 260 271 259
3 259 271 270
3 261 272 260
3 260 272 271
3 262 273 261
3 273 272 261
3 270 274 264
3 275 266 263
3 275 263 265
3 274 276 264
3 276 265 264
3 276 277 265
3 277 275 265
3 278 267 266
3 275 278 266
3 279 268 267
3 278 279 267
3 280 269 268
3 279 280 268
3 271 281 270
3 270 281 274
3 272 282 271
3 271 282 281
3 273 283 272
3 272 283 282
3 281 284 274
3 274 284 276
3 285 278 275
3 277 285 275
3 284 286 276
3 286 285 277
3 276 286 277
3 287 279 278
3 285 287 278
3 288 280 279
3 287 288 279
3 282 289 281
3 281 289 284
3 283 290 282
3 282 290 289
3 289 291 284
3 284 291 286
3 291 292 286
3 292 287 285
3 286 292 285
3 293 288 287
3 292 293 287
3 290 294 289
3 289 294 291
3 294 295 291
3 295 293 292
3 291 295 292
CELL_TYPES 542
5
5
5
5
5
5
5
5
5
5
5
5
5
5
5
5
5
5
5
5
5
5
5
5
5
5
5
5
5
5
5
5
5
5
5
5
5
5
5
5
5
5
5
5
5
5
5
5
5
5
5
5
5
5
5
5
5
5
5
5
5
5
5
5
5
5
5
5
5
5
5
5
5
5
5
5
5
5
5
5
5
5
5
5
5
5
5
5
5
5
5
5
5
5
5
5
5
5
5
5
5
5
5
5
5
5
5
5
5
5
5
5
5
5
5
5
5
5
5
5
5
5
5
5
5
5
5
5
5
5
5
5
5
5
5
5
5
5
5
5
5
5
5
5
5
5
5
5
5
5
5
5
5
5
5
5
5
5
5
5
5
5
5
5
5
5
5
5
5
5
5
5
5
5
5
5
5
5
5
5
5
5
5
5
5
5
5
5
5
5
5
5
5
5
5
5
5
5
5
5
5
5
5
5
5
5
5
5
5
5
5
5
5
5
5
5
5
5
5
5
5
5
5
5
5
5
5
5
5
5
5
5
5
5
5
5
5
5
5
5
5
5
5
5
5
5
5
5
5
5
5
5
5
5
5
5
5
5
5
5
5
5
5
5
5
5
5
5
5
5
5
5
5
5
5
5
5
5
5
5
5
5
5
5
5
5
5
5
5
5
5
5
5
5
5
5
5
5
5
5
5
5
5
5
5
5
5
5
5
5
5
5
5
5
5
5
5
5
5
5
5
5
5
5
5
5
5
5
5
5
5
5
5
5
5
5
5
5
5
5
5
5
5
5
5
5
5
5
5
5
5
5
5
5
5
5
5
5
5
5
5
5
5
5
5
5
5
5
5
5
5
5
5
5
5
5
5
5
5
5
5
5
5
5
5
5
5
5
5
5
5
5
5
5
5
5
5
5
5
5
5
5
5
5
5
5
5
5
5
5
5
5
5
5
5
5
5
5
5
5
5
5
5
5
5
5
5
5
5
5
5
5
5
5
5
5
5
5
5
5
5
5
5
5
5
5
5
5
5
5
5
5
5
5
5
5
5
5
5
5
5
5
5
5
5
5
5
5
5
5
5
5
5
5
5
5
5
5
5
5
5
5
5
5
5
5
5
5
5
5
5
5
5
5
5
5
5
5
5
5
5
5
5
5
5
5
5
5
5
5
5
5
5
5
5
5
5
5
5
5
5
5
5
5
5
5
5
5
5
5
5
5
5
5
5
5
5
5
5
5
5
5
POINT_DATA 296
SCALARS concentrations float 4
LOOKUP_TABLE default
0 0.967278 0.175496 10.8817
0 0.967277 0.175223 10.9001
0 0.967277 0.174722 10.9903
0 0.967278 0.174026 10.7256
0 0.967282 0.0909065 0.00541245
0 0.967278 0.174773 10.8884
0 0.967278 0.174381 11.0166
0 0.967283 0.0909064 0.00545143
0 0.967283 0.0909063 0.00546898
0 0.967278 0.174285 10.7928
0 0.967277 0.174602 10.9495
0 0.967279 0.173221 10.8031
0 0.967278 0.173344 10.743
0 0.967283 0.0909061 0.00536171
0 0.967283 0.0909054 0.00554741
0 0.967292 0.0909048 0.00517509
0 0.967292 0.0909045 0.00512117
0 0.967283 0.0909055 0.00570533
0 0.967283 0.0909055 0.00559469
0 0.967292 0.0909045 0.00517722
0 0.967292 0.0909042 0.00521713
0 0.967275 0.175677 10.8704
0 0.967277 0.176666 11.1054
0 0.967282 0.0909055 0.00547058
0 0.967281 0.0909059 0.00505829
0 0.967283 0.0909051 0.00542053
0 0.967278 0.172775 10.6854
0 0.967283 0.0909053 0.00531686
0 0.967277 0.173397 10.7302
0 0.967292 0.0909047 0.00522662
0 0.967292 0.0909038 0.00510741
0 0.9673 0.090901 0.00453016
0 0.967278 0.174344 10.7584
0 0.967301 0.0908994 0.00423868
0 0.9673 0.0909014 0.00460075
0 0.967292 0.0909041 0.00523486
0 0.967291 0.0909042 0.00518151
0 0.967301 0.0908997 0.00434955
0 0.9673 0.0909017 0.00474975
0 0.967281 0.0909066 0.00498269
0 0.967283 0.0909074 0.00595426
0 0.967291 0.0909042 0.00500395
0 0.967291 0.0909044 0.00492084
0 0.967278 0.173485 10.8498
0 0.967292 0.0909045 0.00516385
0 0.967283 0.0909055 0.00531719
0 0.967292 0.090905 0.00515746
0 0.967276 0.172658 10.7149
0 0.967282 0.0909051 0.00488976
0 0.967277 0.172321 10.6343
0 0.967301 0.0908997 0.00431504
0 0.9673 0.0909013 0.00460317
0 0.967307 0.0908921 0.0028938
0 0.967283 0.0909068 0.005838
0 0.967282 0.0909058 0.00546355
0 0.967307 0.0908923 0.00295903
0 0.967301 0.0909001 0.00443383
0 0.9673 0.0909016 0.00462819
0 0.967307 0.0908927 0.00306662
0 0.967291 0.0909046 0.00506404
0 0.967292 0.0909046 0.00524297
0 0.967301 0.0909006 0.00437336
0 0.967299 0.0909022 0.00463733
0 0.967277 0.172215 10.6743
0 0.967302 0.0908995 0.00418173
0 0.967291 0.0909047 0.00489669
0 0.9673 0.0909015 0.00439578
0 0.967282 0.0909047 0.00457112
0 0.967291 0.090904 0.00455247
0 0.967277 0.17203 10.7444
0 0.967282 0.0909046 0.00399297
0 0.967278 0.172222 10.5426
0 0.967312 0.0908893 0.00239478
0 0.967308 0.0908922 0.00286693
0 0.967312 0.0908893 0.00235385
0 0.967292 0.0909046 0.0051607
0 0.967282 0.0909052 0.00466579
0 0.967291 0.0909045 0.00490473
0 0.967312 0.0908894 0.00243862
0 0.967316 0.0908882 0.00221053
0 0.967307 0.0908929 0.00306565
0 0.967312 0.0908898 0.00251577
0 0.967301 0.0908996 0.00423759
0 0.9673 0.0909007 0.00445121
0 0.967307 0.0908931 0.00306203
0 0.967276 0.172564 10.4669
0 0.967307 0.0908919 0.00269561
0 0.967301 0.0908997 0.00390989
0 0.967291 0.0909042 0.00430878
0 0.9673 0.0909014 0.00401562
0 0.967282 0.0909046 0.00423037
0 0.967291 0.0909042 0.00426136
0 0.967279 0.172125 10.6699
0 0.967283 0.0909044 0.00484419
0 0.967317 0.0908874 0.00202549
0 0.967312 0.0908895 0.00230499
0 0.967317 0.090888 0.00208314
0 0.967312 0.0908892 0.00218689
0 0.96728 0.172701 10.6542
0 0.967282 0.0909048 0.00452413
0 0.967301 0.0909003 0.00428874
0 0.967291 0.0909031 0.00451855
0 0.967299 0.0909017 0.00440909
0 0.96732 0.0908848 0.00159067
0 0.967317 0.0908876 0.00212179
0 0.967312 0.09089 0.00252909
0 0.967317 0.0908886 0.0022981
0 0.967308 0.0908933 0.00309505
0 0.967313 0.0908898 0.00247201
0 0.967278 0.172113 10.7236
0 0.967307 0.090892 0.00255653
0 0.967301 0.0909001 0.00370528
0 0.967292 0.0909042 0.00447599
0 0.9673 0.0909021 0.0040747
0 0.967284 0.0909046 0.00516801
0 0.967292 0.090904 0.0047749
0 0.967284 0.0909046 0.005209
0 0.967322 0.0908834 0.00131013
0 0.967322 0.0908833 0.00133641
0 0.96732 0.0908844 0.00145605
0 0.967317 0.0908874 0.00190866
0 0.967312 0.0908891 0.0021313
0 0.967317 0.0908882 0.00199088
0 0.967323 0.0908822 0.00103787
0 0.96728 0.172433 10.6596
0 0.967283 0.0909043 0.00516002
0 0.967292 0.0909022 0.004474
0 0.967307 0.0908946 0.00324969
0 0.967301 0.0909008 0.00425415
0 0.96732 0.0908849 0.00163173
0 0.967317 0.0908878 0.00213208
0 0.967313 0.0908898 0.00246378
0 0.967317 0.0908876 0.00208896
0 0.967283 0.0909046 0.00510914
0 0.967279 0.172214 10.6606
0 0.967308 0.0908921 0.00257009
0 0.967302 0.0909003 0.00397119
0 0.967293 0.090904 0.00495468
0 0.9673 0.0909016 0.00439949
0 0.967285 0.0909049 0.00540168
0 0.967293 0.0909038 0.00504938
0 0.967312 0.0908891 0.00216523
0 0.967323 0.0908823 0.00117706
0 0.967324 0.0908803 0.000773602
0 0.96732 0.0908842 0.00133538
0 0.967317 0.0908873 0.00183345
0 0.967317 0.0908882 0.0020251
0 0.967323 0.0908817 0.000899786
0 0.967324 0.0908783 0.000298803
0 0.967284 0.0909048 0.0055612
0 0.967281 0.173088 10.6242
0 0.967313 0.0908902 0.00249581
0 0.967292 0.0909025 0.00468409
0 0.9673 0.0909017 0.00446436
0 0.967308 0.0908948 0.00327142
0 0.967292 0.0909037 0.00494068
0 0.967321 0.0908848 0.00160773
0 0.967318 0.0908874 0.00203036
0 0.967323 0.0908825 0.00120613
0 0.967316 0.0908902 0.00252532
0 0.967283 0.0909046 0.00513814
0 0.967279 0.172153 10.5956
0 0.967308 0.090892 0.00271728
0 0.967302 0.0908997 0.00420827
0 0.967292 0.090904 0.00512263
0 0.9673 0.0909014 0.00458319
0 0.967291 0.0909042 0.00503291
0 0.967312 0.0908893 0.00225866
0 0.967324 0.0908784 0.000479469
0 0.96732 0.0908839 0.00128245
0 0.967317 0.0908877 0.00196557
0 0.967323 0.0908811 0.000786254
0 0.967324 0.0908788 0.000444684
0 0.96728 0.0909042 0.00480224
0 0.967278 0.17197 10.7337
0 0.967312 0.0908909 0.00264167
0 0.967301 0.0909002 0.00427993
0 0.967307 0.0908958 0.00347873
0 0.967292 0.0909044 0.00507474
0 0.9673 0.0909004 0.00434615
0 0.967322 0.0908841 0.00146474
0 0.96732 0.0908861 0.0018116
0 0.967323 0.0908821 0.00114105
0 0.967318 0.0908886 0.00226391
0 0.967314 0.0908919 0.0028445
0 0.967293 0.0909042 0.00506488
0 0.967283 0.0909042 0.0050006
0 0.967279 0.171256 10.5659
0 0.967307 0.090892 0.00280814
0 0.967301 0.0908995 0.00419471
0 0.967289 0.0909038 0.00475295
0 0.967299 0.0909011 0.00438726
0 0.967312 0.0908896 0.00234398
0 0.967316 0.0908887 0.0021663
0 0.967323 0.0908811 0.00094435
0 0.96732 0.0908842 0.00137722
0 0.967322 0.0908821 0.00100988
0 0.967323 0.0908823 0.001139
0 0.967322 0.0908826 0.00114661
0 0.967288 0.0909038 0.00474549
0 0.967277 0.0909035 0.00444421
0 0.967273 0.172097 10.4948
0 0.967308 0.0908936 0.00314177
0 0.967302 0.0908997 0.00427937
0 0.967301 0.090902 0.0047741
0 0.967312 0.0908917 0.00283604
0 0.967321 0.0908842 0.00148143
0 0.967317 0.0908885 0.00226414
0 0.967293 0.0909039 0.00516892
0 0.967284 0.0909046 0.00502608
0 0.967279 0.171606 10.4698
0 0.967306 0.0908917 0.00273649
0 0.967299 0.0908994 0.00401574
0 0.967297 0.0909023 0.00454033
0 0.967311 0.0908895 0.00234388
0 0.967317 0.090888 0.00206662
0 0.967321 0.0908847 0.00159639
0 0.96732 0.0908864 0.00188886
0 0.96732 0.090885 0.00156242
0 0.96732 0.0908858 0.00174283
0 0.967288 0.0909041 0.00490773
0 0.967277 0.0909028 0.00473237
0 0.96727 0.170689 10.603
0 0.967308 0.0908936 0.00320024
0 0.967303 0.0908993 0.0043386
0 0.967313 0.0908901 0.00257035
0 0.967318 0.0908871 0.00201308
0 0.967302 0.0909005 0.00456479
0 0.967294 0.0909043 0.00537097
0 0.967286 0.0909048 0.0057098
0 0.967281 0.173064 10.7057
0 0.967306 0.0908917 0.00272457
0 0.967299 0.0909002 0.00423508
0 0.967311 0.0908893 0.00232701
0 0.967316 0.0908889 0.00225469
0 0.967317 0.0908879 0.00216385
0 0.967317 0.0908886 0.00226871
0 0.967316 0.0908885 0.00220563
0 0.967316 0.0908893 0.00237802
0 0.967298 0.0909017 0.00455842
0 0.967289 0.0909042 0.00498873
0 0.967279 0.0909031 0.00478809
0 0.967273 0.170077 10.4009
0 0.967308 0.0908921 0.00295614
0 0.967313 0.0908889 0.00235307
0 0.967302 0.0908993 0.00424177
0 0.967293 0.0909043 0.00522848
0 0.967286 0.0909045 0.00567422
0 0.967282 0.173163 10.7879
0 0.967306 0.0908918 0.00280471
0 0.967311 0.0908895 0.00240219
0 0.967313 0.0908886 0.00227695
0 0.967312 0.0908891 0.00234996
0 0.967311 0.0908894 0.00238943
0 0.9673 0.0908997 0.00424613
0 0.96729 0.0909039 0.00499843
0 0.96728 0.0909038 0.00500449
0 0.967275 0.1712 10.473
0 0.967308 0.0908923 0.00294363
0 0.967301 0.0909012 0.00451753
0 0.967293 0.0909033 0.00490612
0 0.967284 0.0909039 0.0049358
0 0.96728 0.171706 10.5191
0 0.967306 0.0908921 0.00289645
0 0.967308 0.090892 0.00287736
0 0.967307 0.0908919 0.00287515
0 0.967299 0.0909014 0.00457663
0 0.96729 0.0909036 0.00497133
0 0.967281 0.0909038 0.0050699
0 0.967276 0.17191 10.6062
0 0.967302 0.0908997 0.00425924
0 0.967293 0.0909032 0.00486139
0 0.967284 0.0909036 0.00484896
0 0.967279 0.171076 10.7359
0 0.9673 0.0909016 0.0046192
0 0.9673 0.0908998 0.00430077
0 0.967301 0.0908999 0.00431701
0 0.967299 0.0909016 0.00463315
0 0.96729 0.090904 0.0050733
0 0.967281 0.0909034 0.00499205
0 0.967277 0.171252 10.5075
0 0.967292 0.0909039 0.00501964
0 0.967284 0.090904 0.00502852
0 0.967279 0.171612 10.5153
0 0.967292 0.0909041 0.00508133
0 0.967291 0.090904 0.00507965
0 0.967291 0.090904 0.00507474
0 0.967281 0.0909032 0.00496944
0 0.967277 0.169178 10.3274
0 0.967283 0.0909041 0.00511364
0 0.967279 0.171579 10.521
0 0.967283 0.0909039 0.00507285
0 0.967282 0.0909036 0.0050295
0 0.967277 0.170073 10.5503
0 0.967279 0.171691 10.5478
0 0.967278 0.171127 10.4836
VECTORS fa_u float
0.0100517 0.00416835 0
0.00944265 0.00544495 0
0.0106154 0.00284616 0
0.0106375 0.00137215 0
5.01145e-06 2.04449e-06 0
0.00862609 0.00664437 0
0.00779479 0.00778507 0
4.90111e-06 2.38689e-06 0
4.42796e-06 3.2098e-06 0
0.00656832 0.00856396 0
0.0054926 0.00947227 0
0.0108031 1.04806e-05 0
0.0106519 -0.00139634 0
5.30186e-06 7.98897e-07 0
5.53133e-06 4.22044e-07 0
4.96524e-06 1.45876e-06 0
4.70562e-06 2.02078e-06 0
4.225e-06 3.83407e-06 0
3.8803e-06 4.03037e-06 0
4.40757e-06 2.71605e-06 0
4.06325e-06 3.27238e-06 0
0.00415699 0.0100442 0
0.00283106 0.0107385 0
3.1381e-06 4.48102e-06 0
2.81231e-06 4.20443e-06 0
5.41956e-06 -1.0247e-07 0
0.0103195 -0.00277215 0
5.25498e-06 -8.08791e-07 0
0.0099184 -0.00409429 0
5.19398e-06 5.83234e-07 0
5.10491e-06 1.59865e-07 0
4.44074e-06 8.95606e-07 0
0.0014169 0.0106646 0
3.9726e-06 1.47812e-06 0
4.10354e-06 2.08037e-06 0
3.70224e-06 3.70097e-06 0
3.27414e-06 4.01598e-06 0
3.54636e-06 2.51832e-06 0
3.54359e-06 3.16276e-06 0
1.1462e-06 4.84906e-06 0
1.07142e-06 5.85707e-06 0
2.62924e-06 4.25754e-06 0
2.02013e-06 4.48707e-06 0
1.32835e-05 0.0108498 0
5.1459e-06 -4.30139e-07 0
5.14689e-06 -1.33494e-06 0
5.06543e-06 -9.69959e-07 0
0.00928243 -0.0053522 0
4.63312e-06 -1.56329e-06 0
0.00843568 -0.00647512 0
4.30424e-06 3.05089e-07 0
4.60278e-06 -5.93737e-08 0
2.82849e-06 6.1131e-07 0
6.84699e-07 5.7977e-06 0
2.62877e-08 5.46349e-06 0
2.65225e-06 1.31202e-06 0
2.94547e-06 3.31406e-06 0
2.64267e-06 3.79953e-06 0
2.3188e-06 2.00682e-06 0
1.29662e-06 4.89523e-06 0
7.99554e-07 5.18165e-06 0
2.02965e-06 3.87386e-06 0
1.58587e-06 4.35773e-06 0
-0.001374 0.0105855 0
4.15079e-06 -5.07758e-07 0
4.64232e-06 -1.55768e-06 0
4.23664e-06 -1.17206e-06 0
3.92717e-06 -2.33933e-06 0
4.12059e-06 -1.93538e-06 0
0.00759402 -0.00760092 0
3.32775e-06 -2.20679e-06 0
0.00641954 -0.00836276 0
2.26515e-06 7.77224e-07 0
2.86605e-06 -7.08626e-08 0
2.34097e-06 2.45949e-07 0
9.42553e-08 5.15983e-06 0
-2.58378e-07 4.65863e-06 0
-3.59507e-07 4.89154e-06 0
2.03937e-06 1.3371e-06 0
1.98546e-06 9.71799e-07 0
1.81789e-06 2.46849e-06 0
1.74188e-06 1.8152e-06 0
9.0383e-07 4.14008e-06 0
3.44627e-07 4.43785e-06 0
1.13158e-06 2.84527e-06 0
-0.00271099 0.0101098 0
2.59915e-06 -7.14658e-07 0
3.60292e-06 -1.51863e-06 0
3.54308e-06 -2.45198e-06 0
3.46808e-06 -2.02427e-06 0
2.09999e-06 -3.67234e-06 0
2.95863e-06 -3.06687e-06 0
0.0053358 -0.0092399 0
2.40939e-06 -4.2025e-06 0
1.96509e-06 4.90967e-07 0
2.27666e-06 -3.60262e-07 0
2.08299e-06 -2.55575e-08 0
1.99976e-06 -8.85119e-07 0
0.00408047 -0.00984186 0
-1.81821e-06 4.14269e-06 0
-1.33844e-07 4.28665e-06 0
-1.14367e-06 4.37142e-06 0
-8.00536e-07 4.3358e-06 0
1.4223e-06 7.12246e-07 0
1.61927e-06 1.37112e-06 0
1.28322e-06 2.17937e-06 0
1.3927e-06 1.82802e-06 0
3.94945e-07 3.06975e-06 0
7.28374e-07 2.36227e-06 0
-0.00412194 0.00989975 0
2.17322e-06 -1.34645e-06 0
2.82819e-06 -2.39384e-06 0
2.41116e-06 -3.77105e-06 0
2.55875e-06 -3.17112e-06 0
1.79946e-06 -4.84461e-06 0
2.10744e-06 -4.28466e-06 0
1.60997e-06 -4.95396e-06 0
1.25921e-06 3.61704e-07 0
1.05412e-06 8.21467e-07 0
1.45557e-06 3.74235e-08 0
1.84333e-06 -4.95105e-07 0
1.59175e-06 -1.4173e-06 0
1.686e-06 -1.05876e-06 0
1.02763e-06 -1.45452e-07 0
0.00276332 -0.0102952 0
-2.42387e-06 4.55529e-06 0
-1.78826e-06 4.10107e-06 0
-4.04593e-07 3.22441e-06 0
-1.36389e-06 4.02959e-06 0
9.97882e-07 1.29104e-06 0
8.27379e-07 1.965e-06 0
8.21522e-08 2.46241e-06 0
3.49382e-07 2.05954e-06 0
-2.84346e-06 4.24477e-06 0
-0.0053207 0.00923784 0
1.62755e-06 -1.98907e-06 0
2.01529e-06 -3.42183e-06 0
1.62538e-06 -4.68049e-06 0
1.72936e-06 -4.04535e-06 0
6.4834e-07 -5.36263e-06 0
1.15075e-06 -4.91651e-06 0
1.10195e-06 -1.86385e-06 0
5.26294e-07 1.05284e-06 0
6.49549e-07 4.20174e-07 0
1.16662e-06 -6.49792e-07 0
1.2099e-06 -1.37757e-06 0
7.81677e-07 -1.86816e-06 0
6.3808e-07 -6.34405e-07 0
2.48819e-07 -1.65445e-07 0
6.51412e-07 -5.52292e-06 0
0.00137854 -0.0105343 0
-5.72865e-07 2.42917e-06 0
-2.36463e-06 4.04341e-06 0
-1.90603e-06 4.03702e-06 0
-1.08146e-06 3.0875e-06 0
-3.00783e-06 3.9196e-06 0
3.2328e-07 1.57489e-06 0
-1.87501e-07 2.02169e-06 0
8.50765e-09 1.2061e-06 0
-8.46522e-07 2.37921e-06 0
-3.52208e-06 3.74105e-06 0
-0.00644716 0.00840836 0
1.02195e-06 -2.51779e-06 0
1.18729e-06 -4.03731e-06 0
6.06164e-07 -5.08664e-06 0
8.04469e-07 -4.51203e-06 0
1.84834e-07 -5.02951e-06 0
5.43231e-07 -2.19236e-06 0
-1.00421e-07 4.68834e-07 0
5.27023e-07 -1.16915e-06 0
2.82347e-07 -1.94518e-06 0
6.56291e-08 -7.8351e-07 0
-4.05244e-07 -1.83088e-07 0
1.51588e-07 -4.79985e-06 0
2.99312e-05 -0.0107337 0
-1.33346e-06 2.28041e-06 0
-2.32444e-06 3.59371e-06 0
-1.85004e-06 2.946e-06 0
-3.71529e-06 3.45681e-06 0
-2.89127e-06 3.24494e-06 0
-3.22934e-07 1.4287e-06 0
-7.25113e-07 1.66015e-06 0
-6.05613e-07 9.67068e-07 0
-1.32207e-06 1.83778e-06 0
-1.86421e-06 2.14846e-06 0
-3.99732e-06 3.11038e-06 0
-3.70623e-06 3.35707e-06 0
-0.00746615 0.00747631 0
4.06696e-07 -2.77853e-06 0
3.12289e-07 -4.18307e-06 0
-6.01121e-07 -4.71479e-06 0
-2.69553e-07 -4.37897e-06 0
-6.87657e-10 -2.34398e-06 0
-3.06277e-07 -2.14454e-06 0
-8.26871e-07 4.56159e-07 0
-2.12687e-07 -1.3607e-06 0
-4.6985e-07 -8.93926e-07 0
-1.13573e-06 -8.63172e-08 0
-9.4765e-07 -6.45507e-07 0
-1.42286e-06 -4.52716e-06 0
-1.02683e-06 -4.32396e-06 0
-0.0013668 -0.0104054 0
-2.12472e-06 2.31437e-06 0
-3.25231e-06 2.78127e-06 0
-3.90609e-06 2.74491e-06 0
-2.18184e-06 1.81181e-06 0
-1.11461e-06 9.75846e-07 0
-1.8051e-06 1.36672e-06 0
-4.47102e-06 2.59378e-06 0
-4.25416e-06 2.6765e-06 0
-0.00830675 0.00637299 0
-2.76545e-07 -2.72248e-06 0
-8.31161e-07 -3.92878e-06 0
-1.64987e-06 -4.22996e-06 0
-6.39448e-07 -2.25497e-06 0
-8.25131e-07 -1.89475e-06 0
-1.51402e-06 5.06157e-07 0
-1.88754e-06 -7.05878e-08 0
-9.88898e-07 -1.20965e-06 0
-1.59057e-06 -7.12401e-07 0
-2.10101e-06 -4.43527e-06 0
-1.89555e-06 -4.33615e-06 0
-0.00275509 -0.0102388 0
-2.6215e-06 1.83555e-06 0
-3.81593e-06 2.06451e-06 0
-2.29149e-06 1.16437e-06 0
-1.87936e-06 7.21464e-07 0
-4.27344e-06 1.60471e-06 0
-4.86254e-06 2.28101e-06 0
-5.21084e-06 2.3343e-06 0
-0.00928728 0.00532525 0
-1.00351e-06 -2.53303e-06 0
-1.97036e-06 -3.74881e-06 0
-1.18676e-06 -2.00164e-06 0
-1.39859e-06 -1.76849e-06 0
-2.15025e-06 2.42251e-07 0
-2.2418e-06 -3.48407e-07 0
-1.76907e-06 -1.31726e-06 0
-2.20622e-06 -8.87434e-07 0
-2.69333e-06 -3.67766e-06 0
-2.54959e-06 -4.28801e-06 0
-2.2299e-06 -4.23714e-06 0
-0.00398137 -0.00960872 0
-2.75643e-06 1.06812e-06 0
-2.28305e-06 5.69754e-07 0
-4.15341e-06 8.61298e-07 0
-5.00722e-06 1.50492e-06 0
-5.14899e-06 2.38425e-06 0
-0.00996244 0.00413873 0
-1.72723e-06 -2.20976e-06 0
-1.73927e-06 -1.65694e-06 0
-2.27631e-06 -5.40689e-08 0
-2.26012e-06 -6.43568e-07 0
-2.07423e-06 -1.18616e-06 0
-2.94245e-06 -3.06131e-06 0
-3.21105e-06 -3.83059e-06 0
-2.98173e-06 -4.01924e-06 0
-0.00524268 -0.00906634 0
-2.92632e-06 3.18776e-07 0
-4.50242e-06 3.69168e-07 0