# vtk DataFile Version 2.0
CellBP Time: 2.48
ASCII
DATASET UNSTRUCTURED_GRID
POINTS 296 double
-9.06451 -3.7254 0
-8.49376 -4.88275 0
-9.47955 -2.50342 0
-9.73191 -1.23777 0
-8.35791 -2.81882 0
-7.77716 -5.956 0
-6.92653 -6.92657 0
-7.91756 -3.87487 0
-7.34298 -4.86805 0
-5.95608 -7.77729 0
-4.88308 -8.49425 0
-9.81689 0.0499603 0
-9.73223 1.33786 0
-8.65802 -1.684 0
-8.78666 -0.529644 0
-7.59004 -2.00422 0
-7.22608 -2.90661 0
-6.63795 -5.77915 0
-5.82269 -6.59722 0
-6.7906 -3.88909 0
-6.22088 -4.67614 0
-3.72514 -9.06386 0
-2.50319 -9.47866 0
-4.90671 -7.30917 0
-3.9132 -7.88663 0
-8.79312 0.643425 0
-9.48124 2.60388 0
-8.62365 1.77416 0
-9.0656 3.82575 0
-7.74465 -0.929021 0
-7.79488 0.0802608 0
-6.95288 -1.31594 0
-1.23777 -9.73182 0
-6.44178 -2.15322 0
-6.31969 -3.05627 0
-5.53681 -5.47484 0
-4.79615 -6.11579 0
-5.65931 -3.75719 0
-5.26966 -4.56182 0
-2.86631 -8.36436 0
-1.77865 -8.64068 0
-3.92834 -6.72391 0
-3.05678 -7.15299 0
0.0500231 -9.81662 0
-7.70589 1.14357 0
-8.33898 2.91557 0
-7.55228 2.11207 0
-8.49503 4.98349 0
-7.88046 3.97844 0
-7.77821 6.05683 0
-6.77904 -0.396875 0
-6.9569 0.552575 0
-5.77168 -1.00345 0
-0.590866 -8.81018 0
0.565713 -8.77137 0
-5.30338 -2.48039 0
-4.4922 -5.096 0
-3.90271 -5.77563 0
-4.43913 -3.80494 0
-2.06253 -7.56238 0
-1.13554 -7.7863 0
-2.99471 -6.1024 0
-2.30915 -6.62017 0
1.33794 -9.73296 0
-6.68982 1.42213 0
-7.1726 3.1183 0
-6.65964 2.37314 0
-7.29516 4.98895 0
-6.71849 4.0033 0
-6.92727 7.02732 0
-6.5729 5.89452 0
-5.9568 7.87824 0
-4.45331 -1.18111 0
-5.8149 0.513785 0
-4.65637 -0.0103784 0
0.00851932 -7.8486 0
1.73867 -8.64435 0
0.949023 -7.76395 0
-4.03869 -2.40649 0
-3.48569 -1.39126 0
-3.29468 -4.80559 0
-3.26602 -3.26793 0
-1.37866 -6.67588 0
-0.508773 -7.0254 0
-1.97566 -5.53734 0
2.60374 -9.4808 0
-5.50765 2.03704 0
-6.09512 3.07241 0
-6.10553 4.86999 0
-5.76213 3.99176 0
-5.76173 6.71765 0
-5.45255 5.61981 0
-4.8837 8.5954 0
-4.83885 7.40516 0
-3.50165 -0.424318 0
-4.44953 1.2491 0
-3.71164 0.592105 0
-4.06238 2.31994 0
-3.72597 9.16606 0
2.86282 -8.3335 0
0.419719 -6.79593 0
2.02218 -7.52645 0
1.30619 -6.90611 0
-2.44477 -0.873846 0
-2.83851 -2.13123 0
-2.29452 -4.09759 0
-2.32575 -2.97374 0
-0.44241 -5.86156 0
-1.22279 -4.49939 0
3.82614 -9.06642 0
-4.79012 3.39203 0
-5.08835 4.59452 0
-4.64758 6.282 0
-4.53926 5.3602 0
-3.84408 7.99409 0
-3.8271 6.84635 0
-2.78357 8.42363 0
-1.64911 -0.137899 0
-1.45031 -0.890618 0
-2.48922 0.507285 0
-3.25378 1.44423 0
-3.23922 3.31676 0
-2.91113 2.37189 0
-1.35515 0.627135 0
-2.5038 9.58096 0
3.93306 -7.88772 0
2.96483 -7.15842 0
0.954164 -5.82247 0
2.07452 -6.4161 0
-1.68304 -1.99214 0
-1.4345 -3.27794 0
0.0902278 -4.74729 0
-0.566203 -3.69462 0
4.93263 -7.31952 0
4.98369 -8.49542 0
-3.77725 4.55198 0
-3.73511 5.75268 0
-2.88827 7.29061 0
-3.00999 6.35435 0
-1.66272 8.73455 0
-1.94031 7.62016 0
-2.33853 4.05195 0
-0.730758 -1.3273 0
-0.836926 -0.257631 0
-1.93629 1.68086 0
-2.12588 2.876 0
-1.30664 3.5449 0
-0.869491 1.35089 0
-0.282374 0.456066 0
-0.533576 8.87264 0
-1.23785 9.83241 0
1.11287 -4.57493 0
3.91056 -6.71803 0
2.98822 -6.09539 0
2.11805 -5.42544 0
4.78498 -6.20607 0
-0.558878 -2.47693 0
0.495141 -3.46403 0
0.0535562 -1.61055 0
1.48199 -3.6824 0
5.86785 -6.61544 0
6.05688 -7.77831 0
-2.4759 5.34897 0
-2.13067 6.53516 0
-0.904175 7.80421 0
-1.27249 6.93283 0
0.0862152 7.88133 0
-1.14454 4.49505 0
0.150327 -0.617669 0
-0.797463 2.48863 0
-0.331664 3.60096 0
0.063113 1.51279 0
0.741469 0.473441 0
0.646862 8.87533 0
0.0500383 9.91781 0
2.38121 -4.28561 0
3.85963 -5.6411 0
3.00177 -5.21331 0
5.5745 -5.49255 0
4.69162 -5.28373 0
0.629707 -2.29348 0
1.25625 -2.95141 0
0.757528 -1.39151 0
2.1645 -3.13606 0
2.99404 -3.4769 0
6.15605 -4.79247 0
6.65651 -5.77011 0
7.02772 -6.92772 0
-1.01974 5.82097 0
-0.372662 6.88446 0
1.12279 7.77065 0
0.558049 7.08075 0
-0.000763451 4.7256 0
0.60705 3.82812 0
1.33898 -0.641925 0
0.539135 2.65121 0
0.966138 1.57502 0
1.91031 0.213879 0
1.61486 1.06509 0
2.12972 7.58475 0
1.79948 8.71371 0
1.338 9.8327 0
3.82328 -4.35212 0
5.11731 -4.44966 0
5.84663 -3.93573 0
3.78441 -3.2014 0
1.81241 -1.88275 0
3.01943 -2.57413 0
6.7845 -3.94852 0
7.38266 -4.8976 0
7.8784 -5.957 0
0.483418 5.8823 0
1.42839 6.74297 0
2.37473 6.6702 0
1.21011 4.55668 0
1.48832 3.39795 0
2.43599 -0.692074 0
2.8283 0.142616 0
1.78904 2.16302 0
2.61212 1.15025 0
3.07258 7.17142 0
2.90474 8.37833 0
2.60424 9.58225 0
4.912 -3.32836 0
6.12176 -3.10921 0
4.17339 -2.27554 0
3.24478 -1.50306 0
6.73262 -2.31347 0
7.23348 -3.04312 0
7.96645 -3.913 0
8.59496 -4.88347 0
2.02393 5.60069 0
3.08711 6.15481 0
2.36422 4.12746 0
2.42036 3.06124 0
3.52609 -0.460912 0
3.61614 0.613361 0
2.96218 2.28835 0
3.54604 1.52546 0
4.0131 5.89948 0
3.98545 6.79486 0
3.97428 7.94065 0
3.82655 9.16743 0
5.56985 -1.9165 0
4.5099 -1.12977 0
6.71553 -1.33641 0
7.59445 -2.03692 0
8.3993 -2.86207 0
9.16577 -3.72585 0
3.41982 4.87801 0
3.33955 3.38593 0
4.69204 0.130096 0
4.51994 1.31019 0
4.06602 2.44422 0
4.57189 5.15396 0
4.84519 6.1927 0
4.98194 7.38267 0
4.98389 8.59582 0
5.88486 -0.434996 0
7.01299 -0.488381 0
7.76196 -1.08561 0
8.68747 -1.74645 0
9.58142 -2.50388 0
4.55361 3.82856 0
5.8193 1.09887 0
5.37271 2.53562 0
5.38199 4.62223 0
5.6142 5.52554 0
5.89926 6.67424 0
6.05699 7.87847 0
6.84849 0.463696 0
7.85621 -0.025646 0
8.86352 -0.584535 0
9.83363 -1.23801 0
6.96314 1.34995 0
5.72325 3.77988 0
6.54397 2.19833 0
6.38275 3.08921 0
6.29503 4.6889 0
6.6957 5.84011 0
7.02773 7.02764 0
7.7875 0.967996 0
8.86287 0.572969 0
9.91788 0.0500125 0
7.61941 2.00513 0
6.83212 3.90594 0
7.27268 2.94806 0
7.38135 4.88777 0
7.87987 6.05803 0
8.72647 1.7276 0
9.83334 1.33801 0
8.4244 2.83892 0
7.9849 3.9179 0
8.59638 4.98433 0
9.58146 2.60397 0
9.16684 3.82639 0
CELLS 542 2168
3 2 0 4
3 0 1 7
3 4 0 7
3 1 5 8
3 7 1 8
3 3 2 13
3 13 2 4
3 11 3 14
3 14 3 13
3 13 4 15
3 4 7 16
3 15 4 16
3 5 6 17
3 8 5 17
3 6 9 18
3 17 6 18
3 7 8 19
3 16 7 19
3 8 17 20
3 19 8 20
3 9 10 23
3 18 9 23
3 10 21 24
3 23 10 24
3 12 11 25
3 25 11 14
3 26 12 27
3 27 12 25
3 14 13 29
3 29 13 15
3 25 14 30
3 30 14 29
3 29 15 31
3 15 16 33
3 31 15 33
3 16 19 34
3 33 16 34
3 17 18 35
3 20 17 35
3 18 23 36
3 35 18 36
3 19 20 37
3 34 19 37
3 20 35 38
3 37 20 38
3 21 22 39
3 24 21 39
3 22 32 40
3 39 22 40
3 23 24 41
3 36 23 41
3 24 39 42
3 41 24 42
3 27 25 44
3 44 25 30
3 28 26 45
3 45 26 27
3 45 27 46
3 46 27 44
3 47 28 48
3 48 28 45
3 30 29 50
3 50 29 31
3 44 30 51
3 51 30 50
3 50 31 52
3 31 33 52
3 32 43 53
3 40 32 53
3 53 43 54
3 33 34 55
3 34 37 55
3 33 55 52
3 35 36 56
3 38 35 56
3 36 41 57
3 56 36 57
3 37 38 58
3 38 56 58
3 37 58 55
3 39 40 59
3 42 39 59
3 40 53 60
3 59 40 60
3 41 42 61
3 57 41 61
3 42 59 62
3 61 42 62
3 43 63 54
3 46 44 64
3 64 44 51
3 48 45 65
3 65 45 46
3 65 46 66
3 66 46 64
3 49 47 67
3 67 47 48
3 67 48 68
3 68 48 65
3 69 49 70
3 70 49 67
3 52 55 72
3 64 51 73
3 51 50 73
3 50 52 73
3 73 52 74
3 74 52 72
3 53 54 75
3 60 53 75
3 54 63 76
3 54 76 77
3 75 54 77
3 55 58 78
3 72 55 78
3 72 78 79
3 56 57 80
3 57 61 80
3 56 80 58
3 58 80 81
3 78 58 81
3 59 60 82
3 62 59 82
3 60 75 83
3 82 60 83
3 61 62 84
3 62 82 84
3 61 84 80
3 63 85 76
3 66 64 86
3 64 73 86
3 68 65 87
3 87 65 66
3 87 66 86
3 70 67 88
3 88 67 68
3 88 68 89
3 89 68 87
3 71 69 90
3 90 69 70
3 90 70 91
3 91 70 88
3 92 71 93
3 93 71 90
3 74 72 94
3 94 72 79
3 86 73 95
3 95 73 74
3 95 74 96
3 96 74 94
3 97 86 95
3 76 85 99
3 75 77 100
3 83 75 100
3 76 99 101
3 77 76 101
3 77 101 102
3 100 77 102
3 94 79 103
3 78 81 104
3 79 78 104
3 79 104 103
3 80 84 105
3 81 80 105
3 81 105 106
3 104 81 106
3 82 83 107
3 83 100 107
3 82 107 84
3 84 107 108
3 105 84 108
3 85 109 99
3 89 87 110
3 87 86 110
3 110 86 97
3 91 88 111
3 111 88 89
3 111 89 110
3 93 90 112
3 112 90 91
3 112 91 113
3 113 91 111
3 98 92 114
3 114 92 93
3 114 93 115
3 115 93 112
3 116 98 114
3 117 103 118
3 96 94 119
3 94 103 119
3 119 103 117
3 97 95 120
3 120 95 96
3 120 96 119
3 121 110 97
3 121 97 122
3 122 97 120
3 123 119 117
3 124 98 116
3 99 109 125
3 99 125 126
3 101 99 126
3 100 102 127
3 100 127 107
3 101 126 128
3 102 101 128
3 102 128 127
3 104 106 129
3 104 129 103
3 103 129 118
3 105 108 130
3 106 105 130
3 106 130 129
3 107 127 131
3 108 107 131
3 108 131 132
3 108 132 130
3 109 134 125
3 125 134 133
3 113 111 135
3 111 110 135
3 135 110 121
3 115 112 136
3 136 112 113
3 136 113 135
3 116 114 137
3 137 114 115
3 137 115 138
3 138 115 136
3 139 124 116
3 139 116 140
3 140 116 137
3 141 135 121
3 118 129 142
3 118 142 143
3 117 118 143
3 123 117 143
3 122 120 144
3 120 119 144
3 144 119 123
3 141 121 145
3 145 121 122
3 145 122 144
3 146 141 145
3 147 144 123
3 147 123 148
3 143 148 123
3 150 124 139
3 149 150 139
3 131 127 151
3 125 133 152
3 126 125 152
3 126 152 153
3 128 126 153
3 128 153 154
3 128 154 127
3 127 154 151
3 152 133 155
3 130 132 156
3 130 156 129
3 129 156 142
3 131 151 157
3 132 131 157
3 132 157 156
3 156 158 142
3 157 151 159
3 133 160 155
3 134 161 133
3 133 161 160
3 138 136 162
3 136 135 162
3 162 135 141
3 140 137 163
3 163 137 138
3 163 138 162
3 149 139 164
3 164 139 140
3 164 140 165
3 165 140 163
3 166 149 164
3 167 162 141
3 167 141 146
3 142 158 168
3 143 142 168
3 143 168 148
3 146 145 169
3 145 144 169
3 169 144 147
3 170 167 146
3 170 146 169
3 171 169 147
3 171 147 148
3 171 148 172
3 168 172 148
3 173 149 166
3 174 150 149
3 173 174 149
3 154 175 151
3 151 175 159
3 152 155 176
3 153 152 176
3 153 176 177
3 153 177 154
3 154 177 175
3 155 160 178
3 155 178 179
3 176 155 179
3 156 157 180
3 156 180 158
3 157 159 181
3 157 181 180
3 158 180 182
3 158 182 168
3 159 175 183
3 159 183 181
3 175 184 183
3 160 186 178
3 178 186 185
3 161 187 160
3 160 187 186
3 165 163 188
3 163 162 188
3 188 162 167
3 166 164 189
3 189 164 165
3 189 165 188
3 190 173 166
3 190 166 191
3 191 166 189
3 192 188 167
3 192 167 170
3 193 192 170
3 182 194 168
3 194 172 168
3 193 170 195
3 170 169 195
3 195 169 171
3 196 195 171
3 196 171 172
3 194 197 172
3 197 198 172
3 198 196 172
3 200 173 190
3 199 200 190
3 201 174 173
3 200 201 173
3 176 179 202
3 177 176 202
3 177 202 175
3 175 202 184
3 178 185 203
3 178 203 179
3 179 203 202
3 203 185 204
3 202 205 184
3 183 206 181
3 180 181 206
3 180 206 182
3 182 206 194
3 183 184 207
3 205 207 184
3 183 207 206
3 185 208 204
3 186 209 185
3 185 209 208
3 187 210 186
3 186 210 209
3 191 189 211
3 189 188 211
3 211 188 192
3 199 190 212
3 212 190 191
3 212 191 211
3 213 199 212
3 214 211 192
3 214 192 193
3 215 214 193
3 215 193 195
3 206 216 194
3 216 197 194
3 216 217 197
3 215 195 218
3 218 195 196
3 198 218 196
3 217 219 197
3 219 218 198
3 197 219 198
3 220 199 213
3 221 200 199
3 220 221 199
3 222 201 200
3 221 222 200
3 203 204 223
3 203 223 202
3 202 223 205
3 204 208 224
3 204 224 223
3 205 223 225
3 205 225 207
3 207 225 226
3 207 226 206
3 226 216 206
3 208 228 224
3 224 228 227
3 209 229 208
3 229 228 208
3 210 230 209
3 209 230 229
3 213 212 231
3 212 211 231
3 231 211 214
3 232 220 213
3 232 213 231
3 233 231 214
3 233 214 215
3 234 233 215
3 234 215 218
3 226 235 216
3 235 217 216
3 235 236 217
3 217 236 219
3 237 234 218
3 237 218 219
3 236 238 219
3 238 237 219
3 240 220 232
3 239 240 232
3 241 221 220
3 240 241 220
3 242 222 221
3 241 242 221
3 224 227 243
3 224 243 223
3 223 243 225
3 225 243 244
3 225 244 226
3 226 244 235
3 227 245 243
3 228 246 227
3 227 246 245
3 229 247 228
3 228 247 246
3 230 248 229
3 229 248 247
3 239 232 249
3 232 231 249
3 249 231 233
3 250 249 233
3 250 233 234
3 237 250 234
3 244 251 235
3 235 251 236
3 251 252 236
3 236 252 238
3 252 253 238
3 253 250 237
3 253 237 238
3 254 239 249
3 255 240 239
3 254 255 239
3 256 241 240
3 255 256 240
3 257 242 241
3 256 257 241
3 245 258 243
3 243 258 244
3 244 258 251
3 245 259 258
3 246 260 245
3 245 260 259
3 247 261 246
3 246 261 260
3 248 262 247
3 247 262 261
3 254 249 263
3 263 249 250
3 253 263 250
3 258 264 251
3 251 264 252
3 264 265 252
3 265 263 253
3 252 265 253
3 266 254 263
3 267 255 254
3 266 267 254
3 268 256 255
3 267 268 255
3 269 257 256
3 268 269 256
3 259 270 258
3 270 264 258
3 260 271 259
3 259 271 270
3 261 272 260
3 260 272 271
3 262 273 261
3 273 272 261
3 270 274 264
3 275 266 263
3 275 263 265
3 274 276 264
3 276 265 264
3 276 277 265
3 277 275 265
3 278 267 266
3 275 278 266
3 279 268 267
3 278 279 267
3 280 269 268
3 279 280 268
3 271 281 270
3 270 281 274
3 272 282 271
3 271 282 281
3 273 283 272
3 272 283 282
3 281 284 274
3 274 284 276
3 285 278 275
3 277 285 275
3 284 286 276
3 286 285 277
3 276 286 277
3 287 279 278
3 285 287 278
3 288 280 279
3 287 288 279
3 282 289 281
3 281 289 284
3 283 290 282
3 282 290 289
3 289 291 284
3 284 291 286
3 291 292 286
3 292 287 285
3 286 292 285
3 293 288 287
3 292 293 287
3 290 294 289
3 289 294 291
3 294 295 291
3 295 293 292
3 291 295 292
CELL_TYPES 542
5
5
5
5
5
5
5
5
5
5
5
5
5
5
5
5
5
5
5
5
5
5
5
5
5
5
5
5
5
5
5
5
5
5
5
5
5
5
5
5
5
5
5
5
5
5
5
5
5
5
5
5
5
5
5
5
5
5
5
5
5
5
5
5
5
5
5
5
5
5
5
5
5
5
5
5
5
5
5
5
5
5
5
5
5
5
5
5
5
5
5
5
5
5
5
5
5
5
5
5
5
5
5
5
5
5
5
5
5
5
5
5
5
5
5
5
5
5
5
5
5
5
5
5
5
5
5
5
5
5
5
5
5
5
5
5
5
5
5
5
5
5
5
5
5
5
5
5
5
5
5
5
5
5
5
5
5
5
5
5
5
5
5
5
5
5
5
5
5
5
5
5
5
5
5
5
5
5
5
5
5
5
5
5
5
5
5
5
5
5
5
5
5
5
5
5
5
5
5
5
5
5
5
5
5
5
5
5
5
5
5
5
5
5
5
5
5
5
5
5
5
5
5
5
5
5
5
5
5
5
5
5
5
5
5
5
5
5
5
5
5
5
5
5
5
5
5
5
5
5
5
5
5
5
5
5
5
5
5
5
5
5
5
5
5
5
5
5
5
5
5
5
5
5
5
5
5
5
5
5
5
5
5
5
5
5
5
5
5
5
5
5
5
5
5
5
5
5
5
5
5
5
5
5
5
5
5
5
5
5
5
5
5
5
5
5
5
5
5
5
5
5
5
5
5
5
5
5
5
5
5
5
5
5
5
5
5
5
5
5
5
5
5
5
5
5
5
5
5
5
5
5
5
5
5
5
5
5
5
5
5
5
5
5
5
5
5
5
5
5
5
5
5
5
5
5
5
5
5
5
5
5
5
5
5
5
5
5
5
5
5
5
5
5
5
5
5
5
5
5
5
5
5
5
5
5
5
5
5
5
5
5
5
5
5
5
5
5
5
5
5
5
5
5
5
5
5
5
5
5
5
5
5
5
5
5
5
5
5
5
5
5
5
5
5
5
5
5
5
5
5
5
5
5
5
5
5
5
5
5
5
5
5
5
5
5
5
5
5
5
5
5
5
5
5
5
5
5
5
5
5
5
5
5
5
5
5
5
5
5
5
5
5
5
5
5
5
5
5
5
5
5
5
5
5
5
5
5
5
5
5
5
5
5
5
5
5
5
5
5
5
5
5
5
5
5
5
5
5
5
5
5
5
5
5
5
5
5
5
5
5
5
POINT_DATA 296
SCALARS concentrations float 4
LOOKUP_TABLE default
0 0.973574 0.188712 12.2913
0 0.973574 0.188496 12.3993
0 0.973576 0.188073 12.399
0 0.973574 0.18707 12.1692
0 0.97358 0.0909066 0.00579658
0 0.973575 0.187999 12.2004
0 0.973576 0.187612 11.9605
0 0.973579 0.0909063 0.00520267
0 0.973579 0.0909066 0.00550372
0 0.973573 0.187451 12.2587
0 0.97357 0.187778 12.1282
0 0.973574 0.186268 11.97
0 0.973575 0.186447 12.1269
0 0.97358 0.0909063 0.00573168
0 0.973579 0.0909057 0.00491983
0 0.973589 0.0909057 0.00543088
0 0.973589 0.0909055 0.00534347
0 0.97358 0.0909064 0.00576863
0 0.973579 0.0909065 0.00576079
0 0.973589 0.0909056 0.00530514
0 0.973589 0.0909055 0.00539911
0 0.973567 0.188978 12.8506
0 0.973568 0.190024 12.4345
0 0.973577 0.0909059 0.00511388
0 0.973574 0.0909058 0.00470933
0 0.97358 0.0909056 0.00517493
0 0.973575 0.185761 12.0454
0 0.97358 0.0909056 0.00522373
0 0.973577 0.186451 12.1205
0 0.973589 0.0909058 0.00530735
0 0.973589 0.0909049 0.00504163
0 0.973598 0.0909019 0.00466544
0 0.97357 0.187473 12.1468
0 0.973599 0.0909002 0.00439984
0 0.973597 0.0909023 0.00476153
0 0.973589 0.0909054 0.00538057
0 0.973587 0.0909054 0.00518838
0 0.973599 0.0909006 0.00449058
0 0.973597 0.0909028 0.0048846
0 0.973573 0.0909058 0.00448206
0 0.973575 0.0909072 0.00497189
0 0.973586 0.090905 0.0047996
0 0.973585 0.0909048 0.00458953
0 0.973572 0.186593 12.0984
0 0.973589 0.0909056 0.0051982
0 0.973581 0.0909057 0.00518579
0 0.97359 0.0909061 0.00529709
0 0.973578 0.185754 12.1437
0 0.973582 0.0909055 0.00534268
0 0.973576 0.185284 12.0156
0 0.973599 0.0909006 0.00437218
0 0.973598 0.0909023 0.00463507
0 0.973605 0.0908927 0.00298028
0 0.973577 0.0909068 0.00531732
0 0.973578 0.090906 0.00527425
0 0.973605 0.0908929 0.00305031
0 0.973598 0.0909011 0.00446279
0 0.973596 0.0909024 0.00450371
0 0.973605 0.0908934 0.00312587
0 0.973585 0.090905 0.00462553
0 0.973586 0.0909053 0.00486717
0 0.973597 0.0909011 0.00411368
0 0.973595 0.0909026 0.00426252
0 0.973574 0.18515 11.9796
0 0.9736 0.0909004 0.00429686
0 0.97359 0.0909058 0.00526468
0 0.973598 0.0909024 0.00465425
0 0.973581 0.0909052 0.00528668
0 0.97359 0.0909051 0.00514538
0 0.973573 0.185101 11.98
0 0.973579 0.0909049 0.00500016
0 0.97357 0.185057 12.0708
0 0.97361 0.0908898 0.00245053
0 0.973605 0.0908928 0.00295331
0 0.97361 0.0908898 0.00243358
0 0.973587 0.0909055 0.00509441
0 0.973579 0.0909051 0.00529242
0 0.973588 0.0909054 0.00521065
0 0.97361 0.0908899 0.00246454
0 0.973614 0.0908886 0.00222492
0 0.973604 0.0908934 0.00300576
0 0.97361 0.0908903 0.00249548
0 0.973597 0.0909001 0.00392565
0 0.973596 0.0909013 0.00428287
0 0.973604 0.0908934 0.00287438
0 0.973576 0.185664 12.1226
0 0.973605 0.0908925 0.0028742
0 0.973599 0.0909006 0.00431426
0 0.973589 0.0909054 0.00505779
0 0.973598 0.0909024 0.00457095
0 0.973576 0.0909047 0.00437566
0 0.973588 0.0909053 0.00474786
0 0.97357 0.185135 11.975
0 0.973575 0.0909046 0.00420468
0 0.973615 0.0908877 0.00206294
0 0.97361 0.09089 0.00242139
0 0.973615 0.0908884 0.00215771
0 0.97361 0.0908898 0.00232386
0 0.973569 0.185586 11.9537
0 0.973581 0.0909049 0.00531519
0 0.973598 0.090901 0.00434961
0 0.973589 0.090904 0.0050523
0 0.973597 0.0909025 0.004731
0 0.973618 0.0908851 0.0015706
0 0.973615 0.090888 0.00208738
0 0.97361 0.0908903 0.00245515
0 0.973614 0.0908889 0.00222422
0 0.973604 0.0908937 0.00297487
0 0.97361 0.0908901 0.00236712
0 0.973576 0.185074 11.8476
0 0.973605 0.0908927 0.00280716
0 0.973599 0.090901 0.00414418
0 0.973586 0.0909052 0.0044589
0 0.973596 0.0909032 0.00427471
0 0.973575 0.0909051 0.00409236
0 0.973586 0.0909051 0.00427886
0 0.973575 0.0909051 0.00419758
0 0.973621 0.0908836 0.00127034
0 0.973621 0.0908835 0.00125935
0 0.973618 0.0908847 0.00148263
0 0.973616 0.0908878 0.00200132
0 0.97361 0.0908897 0.00222481
0 0.973615 0.0908887 0.00209067
0 0.973621 0.0908824 0.00102408
0 0.973571 0.185455 12.0363
0 0.973581 0.0909048 0.00513881
0 0.97359 0.0909032 0.00490374
0 0.973605 0.0908951 0.00334908
0 0.973598 0.0909017 0.00462116
0 0.973618 0.0908851 0.00155586
0 0.973615 0.090888 0.00204091
0 0.97361 0.0908902 0.00242234
0 0.973615 0.0908879 0.00201296
0 0.973581 0.0909049 0.005205
0 0.973576 0.18517 11.9366
0 0.973605 0.0908927 0.00264718
0 0.973597 0.0909012 0.00381333
0 0.973586 0.0909051 0.00429858
0 0.973596 0.0909026 0.00395708
0 0.973577 0.0909049 0.00472323
0 0.973587 0.0909049 0.0044304
0 0.97361 0.0908896 0.00216296
0 0.973621 0.0908824 0.00107466
0 0.973623 0.0908803 0.000660568
0 0.973619 0.0908845 0.00138295
0 0.973616 0.0908878 0.00188224
0 0.973615 0.0908888 0.00202433
0 0.973621 0.0908819 0.000922557
0 0.973623 0.0908784 0.000294248
0 0.973579 0.0909051 0.00460167
0 0.973573 0.186056 12.0993
0 0.973611 0.0908906 0.00255747
0 0.97359 0.0909036 0.00495187
0 0.973598 0.0909026 0.00479256
0 0.973606 0.0908954 0.00345994
0 0.973589 0.0909047 0.00516618
0 0.973619 0.090885 0.00153158
0 0.973616 0.0908876 0.00201454
0 0.973622 0.0908825 0.00113869
0 0.973615 0.0908906 0.00259209
0 0.97358 0.0909048 0.0051542
0 0.973576 0.185123 12.0525
0 0.973605 0.0908926 0.00255406
0 0.973598 0.0909007 0.0037474
0 0.973588 0.0909051 0.00466331
0 0.973596 0.0909025 0.00414428
0 0.973589 0.0909055 0.00488633
0 0.97361 0.0908899 0.00221834
0 0.973623 0.0908783 0.000449911
0 0.973619 0.0908843 0.00131075
0 0.973616 0.0908883 0.00197783
0 0.973622 0.0908814 0.000851572
0 0.973623 0.090879 0.000584874
0 0.97358 0.0909048 0.00494497
0 0.973575 0.184877 11.7248
0 0.97361 0.0908914 0.00276721
0 0.973599 0.0909011 0.00452354
0 0.973605 0.0908965 0.00369794
0 0.973589 0.0909053 0.00529664
0 0.973598 0.0909012 0.00455379
0 0.97362 0.0908842 0.00144957
0 0.973618 0.0908864 0.00185553
0 0.973622 0.0908823 0.00117757
0 0.973616 0.090889 0.002363
0 0.973612 0.0908924 0.00297795
0 0.973589 0.090905 0.00524649
0 0.97358 0.0909043 0.00516051
0 0.973575 0.184099 11.8197
0 0.973605 0.0908927 0.00266285
0 0.973599 0.0909005 0.00398531
0 0.973589 0.0909052 0.00503144
0 0.973598 0.0909023 0.00443384
0 0.97361 0.0908903 0.00236935
0 0.973615 0.0908893 0.00223951
0 0.973622 0.0908813 0.00104945
0 0.973619 0.0908847 0.00145528
0 0.973622 0.0908825 0.00113458
0 0.973622 0.0908827 0.00130619
0 0.973622 0.090883 0.00131511
0 0.97359 0.0909052 0.00510417
0 0.973581 0.0909043 0.00506794
0 0.973576 0.185126 12.2243
0 0.973606 0.0908942 0.00330086
0 0.973599 0.0909005 0.00443956
0 0.973598 0.0909029 0.00486698
0 0.97361 0.0908923 0.00297301
0 0.973619 0.0908844 0.0015807
0 0.973616 0.090889 0.0023956
0 0.973589 0.0909048 0.0051709
0 0.97358 0.0909045 0.00520014
0 0.973575 0.184556 12.0938
0 0.973605 0.0908925 0.00278922
0 0.9736 0.0909006 0.00424182
0 0.973598 0.0909036 0.00485405
0 0.973611 0.0908902 0.00245419
0 0.973616 0.0908886 0.0022006
0 0.97362 0.0908851 0.0017459
0 0.973619 0.090887 0.00208901
0 0.973619 0.0908855 0.00171869
0 0.973619 0.0908863 0.0019387
0 0.973589 0.0909055 0.00519453
0 0.97358 0.0909036 0.00474585
0 0.973576 0.183776 11.7623
0 0.973606 0.0908942 0.00330548
0 0.9736 0.0909002 0.00437239
0 0.973611 0.0908907 0.00270033
0 0.973617 0.0908876 0.00215992
0 0.973599 0.0909017 0.00462551
0 0.97359 0.0909055 0.00525678
0 0.97358 0.090905 0.00506968
0 0.973575 0.186104 12.0231
0 0.973606 0.0908925 0.00290015
0 0.9736 0.0909014 0.00451299
0 0.973611 0.09089 0.00248132
0 0.973615 0.0908895 0.0024337
0 0.973616 0.0908885 0.00234247
0 0.973616 0.0908892 0.00246989
0 0.973616 0.0908891 0.00240393
0 0.973615 0.0908899 0.00258802
0 0.973599 0.0909028 0.00482581
0 0.97359 0.0909055 0.00525137
0 0.973581 0.0909034 0.00490098
0 0.973576 0.182806 11.7716
0 0.973606 0.0908928 0.00306368
0 0.973612 0.0908895 0.00249285
0 0.9736 0.0909004 0.0044311
0 0.97359 0.0909056 0.0053195
0 0.973581 0.0909049 0.00515168
0 0.973576 0.186155 12.053
0 0.973606 0.0908926 0.00299262
0 0.973611 0.0908902 0.00257765
0 0.973612 0.0908892 0.00244142
0 0.973611 0.0908897 0.00252709
0 0.973611 0.09089 0.00256735
0 0.9736 0.0909008 0.00448167
0 0.97359 0.0909051 0.0052375
0 0.973581 0.0909041 0.00506674
0 0.973576 0.184088 11.9728
0 0.973607 0.0908931 0.00312399
0 0.973599 0.0909024 0.00478869
0 0.97359 0.0909048 0.00517554
0 0.973581 0.0909045 0.00511272
0 0.973576 0.18464 11.928
0 0.973606 0.0908929 0.00307543
0 0.973607 0.0908927 0.00306676
0 0.973607 0.0908927 0.00305114
0 0.973599 0.0909025 0.0047967
0 0.97359 0.0909048 0.00517223
0 0.973581 0.0909042 0.0051052
0 0.973577 0.184837 11.9071
0 0.973601 0.0909008 0.00451969
0 0.973591 0.0909045 0.00513756
0 0.973581 0.0909043 0.00508571
0 0.973577 0.183961 11.8452
0 0.973599 0.0909027 0.00486679
0 0.9736 0.0909009 0.0045045
0 0.973601 0.0909009 0.00453867
0 0.973599 0.0909027 0.00484217
0 0.97359 0.0909053 0.00524057
0 0.973581 0.0909039 0.00498409
0 0.973577 0.184147 11.8802
0 0.973591 0.090905 0.00525512
0 0.973581 0.0909043 0.00506168
0 0.973577 0.184519 11.9165
0 0.973591 0.0909052 0.00529486
0 0.97359 0.0909053 0.00523731
0 0.97359 0.0909052 0.00526563
0 0.973581 0.0909038 0.00487082
0 0.973577 0.181817 11.5676
0 0.973582 0.0909043 0.00513259
0 0.973577 0.184456 11.9141
0 0.973582 0.0909042 0.00512896
0 0.973581 0.0909039 0.0049868
0 0.973576 0.182863 11.8158
0 0.973577 0.184628 11.9297
0 0.973577 0.18397 11.8438
VECTORS fa_u float
0.0113673 0.00467558 0
0.0107281 0.00621689 0
0.0119736 0.00322012 0
0.0120606 0.00162196 0
5.63226e-06 1.37041e-06 0
0.00966709 0.00744299 0
0.00846653 0.00844812 0
4.64127e-06 2.35081e-06 0
4.45192e-06 3.23594e-06 0
0.007473 0.00971751 0
0.00605636 0.0105078 0
0.01197 -2.94023e-05 0
0.012023 -0.00158393 0
5.45813e-06 1.74958e-06 0
4.91264e-06 2.65827e-07 0
5.21348e-06 1.52123e-06 0
4.9692e-06 1.96463e-06 0
4.24218e-06 3.90909e-06 0
4.34192e-06 3.78609e-06 0
4.54872e-06 2.73014e-06 0
4.26871e-06 3.30583e-06 0
0.00492274 0.0118703 0
0.00322103 0.0120101 0
3.3203e-06 3.88939e-06 0
2.69631e-06 3.86105e-06 0
5.16088e-06 -3.81064e-07 0
0.0116343 -0.00312006 0
5.14085e-06 -9.26791e-07 0
0.0111885 -0.00466079 0
5.25961e-06 7.10293e-07 0
5.04123e-06 6.35418e-08 0
4.57568e-06 9.10798e-07 0
0.00157452 0.0120443 0
4.14759e-06 1.46837e-06 0
4.28782e-06 2.07046e-06 0
3.95546e-06 3.64758e-06 0
3.53778e-06 3.79517e-06 0
3.71876e-06 2.51717e-06 0
3.74504e-06 3.13591e-06 0
1.37981e-06 4.26439e-06 0
5.47529e-07 4.94165e-06 0
2.74119e-06 3.93981e-06 0
2.02285e-06 4.11969e-06 0
4.64133e-06 0.0120984 0
5.15891e-06 -6.37877e-07 0
4.91826e-06 -1.64412e-06 0
5.14544e-06 -1.25843e-06 0
0.0105135 -0.00607735 0
4.76155e-06 -2.42319e-06 0
0.00953705 -0.0073089 0
4.36453e-06 2.5851e-07 0
4.63139e-06 -1.84629e-07 0
2.92964e-06 5.47058e-07 0
2.34089e-08 5.31727e-06 0
-5.73383e-07 5.24299e-06 0
2.7749e-06 1.26662e-06 0
3.11983e-06 3.1911e-06 0
2.7627e-06 3.55681e-06 0
2.44094e-06 1.95266e-06 0
1.12977e-06 4.48543e-06 0
4.03582e-07 4.85041e-06 0
2.03613e-06 3.57443e-06 0
1.47782e-06 3.99815e-06 0
-0.0015693 0.0118763 0
4.23973e-06 -6.9834e-07 0
4.86184e-06 -2.01974e-06 0
4.4166e-06 -1.46822e-06 0
4.58048e-06 -2.63974e-06 0
4.5494e-06 -2.40372e-06 0
0.00848752 -0.00845475 0
4.04539e-06 -2.93878e-06 0
0.00734882 -0.00957593 0
2.34971e-06 6.95681e-07 0
2.94761e-06 -1.8334e-07 0
2.42905e-06 1.48455e-07 0
-4.11586e-07 5.07776e-06 0
-1.23551e-06 5.14618e-06 0
-9.43544e-07 5.12451e-06 0
2.11729e-06 1.26136e-06 0
2.03995e-06 8.88189e-07 0
1.87715e-06 2.34753e-06 0
1.79122e-06 1.73752e-06 0
6.80592e-07 3.8662e-06 0
1.14956e-08 4.28286e-06 0
1.05831e-06 2.67246e-06 0
-0.00314418 0.0117077 0
2.73695e-06 -8.77558e-07 0
3.90034e-06 -1.84397e-06 0
4.18905e-06 -2.83427e-06 0
3.92058e-06 -2.35004e-06 0
3.40146e-06 -2.75253e-06 0
3.64328e-06 -3.04445e-06 0
0.00597344 -0.0103787 0
2.2305e-06 -3.56429e-06 0
2.02354e-06 4.01263e-07 0
2.37395e-06 -4.76946e-07 0
2.15412e-06 -1.2445e-07 0
2.10518e-06 -9.84148e-07 0
0.00457879 -0.011042 0
-1.77919e-06 5.00856e-06 0
-5.20053e-07 4.31841e-06 0
-1.53286e-06 4.81416e-06 0
-1.19565e-06 4.57742e-06 0
1.43844e-06 6.30626e-07 0
1.64191e-06 1.28891e-06 0
1.26694e-06 2.10301e-06 0
1.37888e-06 1.74523e-06 0
1.96574e-07 2.96836e-06 0
6.28984e-07 2.28202e-06 0
-0.00452293 0.0109503 0
2.38594e-06 -1.479e-06 0
3.27555e-06 -2.5387e-06 0
2.89839e-06 -3.38839e-06 0
2.97114e-06 -3.07335e-06 0
2.07646e-06 -3.52643e-06 0
2.23442e-06 -3.64911e-06 0
7.4662e-07 -4.13065e-06 0
1.24259e-06 2.64049e-07 0
1.01577e-06 7.44433e-07 0
1.48152e-06 -5.73748e-08 0
1.91021e-06 -5.96976e-07 0
1.68525e-06 -1.45248e-06 0
1.75505e-06 -1.13608e-06 0
9.96322e-07 -2.36829e-07 0
0.00311565 -0.011626 0
-2.25498e-06 4.61762e-06 0
-1.94161e-06 4.50297e-06 0
-6.62039e-07 3.283e-06 0
-1.65301e-06 4.3154e-06 0
9.61181e-07 1.22346e-06 0
7.58387e-07 1.89477e-06 0
-8.83171e-08 2.42073e-06 0
2.32601e-07 1.99948e-06 0
-2.96032e-06 4.28118e-06 0
-0.00596506 0.0103392 0
1.78805e-06 -1.95203e-06 0
2.19438e-06 -3.11868e-06 0
1.48393e-06 -4.03432e-06 0
1.70592e-06 -3.57048e-06 0
5.62722e-07 -4.68959e-06 0
8.23648e-07 -4.35317e-06 0
1.14117e-06 -1.83742e-06 0
4.39416e-07 9.80714e-07 0
5.73143e-07 3.28416e-07 0
1.17579e-06 -7.2806e-07 0
1.23763e-06 -1.41813e-06 0
7.6214e-07 -1.87538e-06 0
5.9415e-07 -7.0576e-07 0
1.65997e-07 -2.42955e-07 0
-4.35482e-08 -4.60146e-06 0
0.00156847 -0.0119972 0
-7.66861e-07 2.43979e-06 0
-2.50432e-06 4.27193e-06 0
-2.12244e-06 4.29696e-06 0
-1.31023e-06 3.20226e-06 0
-3.1401e-06 4.10234e-06 0
2.20623e-07 1.5156e-06 0
-3.47438e-07 1.98436e-06 0
-1.23133e-07 1.13201e-06 0
-1.0393e-06 2.37461e-06 0
-3.44228e-06 3.83621e-06 0
-0.00733189 0.00956586 0
1.01142e-06 -2.34526e-06 0
1.02e-06 -3.60591e-06 0
2.21235e-07 -4.65805e-06 0
5.21905e-07 -4.11129e-06 0
-3.95243e-07 -4.87032e-06 0
4.8873e-07 -2.16383e-06 0
-2.178e-07 3.93679e-07 0
4.83701e-07 -1.21823e-06 0
1.97017e-07 -1.96799e-06 0
-1.9486e-08 -8.51349e-07 0
-5.27314e-07 -2.53018e-07 0
-9.42392e-07 -4.85434e-06 0
5.16689e-07 -0.0117248 0
-1.52159e-06 2.31133e-06 0
-2.49522e-06 3.7731e-06 0
-2.05585e-06 3.0738e-06 0
-3.88107e-06 3.60441e-06 0
-3.04461e-06 3.38636e-06 0
-4.80989e-07 1.36744e-06 0
-9.07389e-07 1.61853e-06 0
-7.59376e-07 9.0001e-07 0
-1.50069e-06 1.8253e-06 0
-2.04635e-06 2.16348e-06 0
-4.11007e-06 3.26083e-06 0
-3.96355e-06 3.30472e-06 0
-0.00835657 0.00835894 0
2.55889e-07 -2.65053e-06 0
-1.26797e-08 -3.98529e-06 0
-1.06916e-06 -4.91653e-06 0
-6.37402e-07 -4.38779e-06 0
-1.39093e-07 -2.36527e-06 0
-4.45298e-07 -2.19479e-06 0
-9.68454e-07 4.04289e-07 0
-3.2322e-07 -1.41893e-06 0
-5.97383e-07 -9.64575e-07 0
-1.29613e-06 -1.61809e-07 0
-1.09938e-06 -7.21727e-07 0
-1.64247e-06 -4.83269e-06 0
-1.18901e-06 -4.92649e-06 0
-0.00155876 -0.0121245 0
-2.28726e-06 2.37994e-06 0
-3.38957e-06 2.86715e-06 0
-3.98395e-06 2.79565e-06 0
-2.35073e-06 1.82012e-06 0
-1.27332e-06 9.36626e-07 0
-1.97766e-06 1.35195e-06 0
-4.42295e-06 2.67875e-06 0
-4.17484e-06 3.10034e-06 0
-0.00959677 0.0073595 0
-4.83756e-07 -2.74695e-06 0
-1.10089e-06 -4.09647e-06 0
-1.88103e-06 -4.47477e-06 0
-8.09817e-07 -2.31673e-06 0
-9.82153e-07 -1.96927e-06 0
-1.68662e-06 4.51083e-07 0
-2.08392e-06 -1.45641e-07 0
-1.14219e-06 -1.28425e-06 0
-1.7705e-06 -7.89863e-07 0
-2.28865e-06 -4.66318e-06 0
-1.8049e-06 -4.38924e-06 0
-0.00302775 -0.011366 0
-2.74722e-06 1.8382e-06 0
-3.87849e-06 2.01869e-06 0
-2.44822e-06 1.13929e-06 0
-2.05123e-06 6.7655e-07 0
-4.38285e-06 1.47853e-06 0
-4.8159e-06 2.10732e-06 0
-4.536e-06 2.26414e-06 0
-0.0104112 0.00601351 0
-1.19138e-06 -2.64415e-06 0
-2.16738e-06 -3.95848e-06 0
-1.358e-06 -2.07673e-06 0
-1.57498e-06 -1.85535e-06 0
-2.33611e-06 1.72579e-07 0
-2.43312e-06 -4.24602e-07 0
-1.95372e-06 -1.40067e-06 0
-2.40114e-06 -9.65575e-07 0
-2.88453e-06 -3.86884e-06 0
-2.71637e-06 -4.49424e-06 0
-2.41771e-06 -4.26313e-06 0
-0.00450636 -0.0108749 0
-2.89207e-06 1.01097e-06 0
-2.43983e-06 5.11389e-07 0
-4.36758e-06 7.47591e-07 0
-5.17134e-06 1.24673e-06 0
-4.88416e-06 1.63853e-06 0
-0.0111357 0.00461197 0
-1.89812e-06 -2.31364e-06 0
-1.91032e-06 -1.73059e-06 0
-2.43835e-06 -1.2241e-07 0
-2.42484e-06 -7.11577e-07 0
-2.24083e-06 -1.25299e-06 0
-3.12535e-06 -3.21209e-06 0
-3.37674e-06 -4.00364e-06 0
-2.97455e-06 -4.10169e-06 0
-0.00599353 -0.0103647 0
-3.11364e-06 2.54077e-07 0
-4.77942e-06 2.97822e-07 0
-5.13117e-06 6.76229e-07 0
-5.01253e-06 1.0072e-06 0