# vtk DataFile Version 2.0
CellBP Time: 0.2
ASCII
DATASET UNSTRUCTURED_GRID
POINTS 296 double
-9.18136 -3.77376 0
-8.60331 -4.94599 0
-9.60155 -2.53613 0
-9.8566 -1.25423 0
-8.35804 -2.81886 0
-7.87721 -6.03276 0
-7.01546 -7.01546 0
-7.91768 -3.87493 0
-7.3431 -4.86813 0
-6.03279 -7.87724 0
-4.94603 -8.60336 0
-9.94215 0.0499961 0
-9.85664 1.35423 0
-8.65816 -1.68403 0
-8.7868 -0.529652 0
-7.59018 -2.00426 0
-7.22621 -2.90666 0
-6.63805 -5.77924 0
-5.82278 -6.59732 0
-6.79072 -3.88916 0
-6.221 -4.67623 0
-3.77376 -9.18134 0
-2.53609 -9.60138 0
-4.90679 -7.30928 0
-3.91326 -7.88675 0
-8.79325 0.643436 0
-9.60237 2.63635 0
-8.62378 1.77418 0
-9.18151 3.87382 0
-7.74479 -0.929036 0
-7.79502 0.0802611 0
-6.95301 -1.31596 0
-1.25423 -9.8566 0
-6.4419 -2.15326 0
-6.3198 -3.05633 0
-5.53691 -5.47494 0
-4.79624 -6.1159 0
-5.65941 -3.75726 0
-5.26976 -4.5619 0
-2.86636 -8.36449 0
-1.77868 -8.64081 0
-3.92841 -6.72403 0
-3.05683 -7.15312 0
0.0499962 -9.94214 0
-7.70603 1.14359 0
-8.33911 2.91561 0
-7.55242 2.11211 0
-8.60349 5.0461 0
-7.88058 3.97849 0
-7.87737 6.13289 0
-6.77916 -0.39688 0
-6.95702 0.552582 0
-5.77176 -1.00346 0
-0.590876 -8.81032 0
0.565721 -8.77151 0
-5.30346 -2.48042 0
-4.49228 -5.09609 0
-3.90278 -5.77574 0
-4.4392 -3.80499 0
-2.06257 -7.56251 0
-1.13556 -7.78644 0
-2.99476 -6.10251 0
-2.30919 -6.62029 0
1.35425 -9.85678 0
-6.68994 1.42215 0
-7.17273 3.11835 0
-6.65976 2.37319 0
-7.29527 4.98902 0
-6.71861 4.00337 0
-7.01558 7.11559 0
-6.573 5.8946 0
-6.03289 7.97738 0
-4.45337 -1.18113 0
-5.81498 0.513792 0
-4.65644 -0.0103812 0
0.00852183 -7.84874 0
1.73869 -8.64448 0
0.949041 -7.76409 0
-4.03875 -2.40653 0
-3.48575 -1.39128 0
-3.29473 -4.80566 0
-3.26607 -3.26798 0
-1.37869 -6.67599 0
-0.508781 -7.02552 0
-1.97569 -5.53742 0
2.63617 -9.60174 0
-5.50772 2.03707 0
-6.09522 3.07246 0
-6.10564 4.87007 0
-5.76224 3.99183 0
-5.76181 6.71775 0
-5.45265 5.6199 0
-4.94612 8.70354 0
-4.83892 7.40527 0
-3.50171 -0.424328 0
-4.44959 1.24912 0
-3.7117 0.59211 0
-4.06244 2.31997 0
-3.77385 9.28159 0
2.86286 -8.33362 0
0.419726 -6.79605 0
2.02221 -7.52658 0
1.30621 -6.90624 0
-2.44481 -0.873863 0
-2.83855 -2.13126 0
-2.29456 -4.09765 0
-2.32579 -2.97379 0
-0.44242 -5.86164 0
-1.22281 -4.49945 0
3.87387 -9.18164 0
-4.79019 3.39208 0
-5.08844 4.5946 0
-4.64767 6.28211 0
-4.53934 5.36029 0
-3.84414 7.99421 0
-3.82717 6.84647 0
-2.78361 8.42375 0
-1.64914 -0.137906 0
-1.45034 -0.890638 0
-2.48926 0.507287 0
-3.25384 1.44425 0
-3.23927 3.31681 0
-2.91118 2.37193 0
-1.35518 0.627143 0
-2.53617 9.70174 0
3.93312 -7.88783 0
2.96487 -7.15854 0
0.954177 -5.82256 0
2.07456 -6.41621 0
-1.68307 -1.99218 0
-1.43452 -3.278 0
0.0902262 -4.74736 0
-0.566213 -3.69468 0
4.93271 -7.31963 0
5.04612 -8.60354 0
-3.7773 4.55205 0
-3.73518 5.75278 0
-2.88832 7.29074 0
-3.01005 6.35446 0
-1.66275 8.73468 0
-1.94035 7.62029 0
-2.33857 4.052 0
-0.730773 -1.32732 0
-0.836945 -0.25764 0
-1.93633 1.68088 0
-2.12592 2.87604 0
-1.30667 3.54496 0
-0.869511 1.35091 0
-0.282383 0.456073 0
-0.533582 8.87277 0
-1.25424 9.95667 0
1.11288 -4.575 0
3.91062 -6.71815 0
2.98828 -6.09551 0
2.11808 -5.42553 0
4.78506 -6.20618 0
-0.558888 -2.47697 0
0.495146 -3.46409 0
0.0535554 -1.61058 0
1.48202 -3.68246 0
5.86794 -6.61554 0
6.13308 -7.87763 0
-2.47594 5.34904 0
-2.13071 6.53527 0
-0.904191 7.80435 0
-1.27251 6.93296 0
0.0862156 7.88147 0
-1.14456 4.49511 0
0.150329 -0.61768 0
-0.79748 2.48867 0
-0.331675 3.60102 0
0.0631093 1.51282 0
0.741479 0.473449 0
0.646871 8.87546 0
0.050001 10.0425 0
2.38125 -4.28568 0
3.85969 -5.64121 0
3.00183 -5.2134 0
5.5746 -5.49265 0
4.6917 -5.28382 0
0.629716 -2.29352 0
1.25627 -2.95146 0
0.757545 -1.39154 0
2.16454 -3.13611 0
2.99409 -3.47696 0
6.15616 -4.79256 0
6.65661 -5.7702 0
7.11564 -7.01565 0
-1.01975 5.82105 0
-0.37267 6.88458 0
1.12281 7.77079 0
0.558058 7.08088 0
-0.000765547 4.72567 0
0.607057 3.82818 0
1.339 -0.641936 0
0.539139 2.65126 0
0.966149 1.57505 0
1.91034 0.213883 0
1.61488 1.06511 0
2.12976 7.58488 0
1.79951 8.71384 0
1.35425 9.95675 0
3.82333 -4.35219 0
5.1174 -4.44974 0
5.84674 -3.93581 0
3.78447 -3.20145 0
1.81244 -1.88278 0
3.01948 -2.57417 0
6.78462 -3.94859 0
7.38277 -4.89767 0
7.97742 -6.03293 0
0.483424 5.88238 0
1.42842 6.74308 0
2.37477 6.67032 0
1.21013 4.55675 0
1.48834 3.39801 0
2.43603 -0.692086 0
2.82835 0.14262 0
1.78906 2.16306 0
2.61216 1.15027 0
3.07263 7.17155 0
2.90478 8.37845 0
2.63633 9.70226 0
4.91207 -3.32841 0
6.12186 -3.10927 0
4.17346 -2.27557 0
3.24483 -1.50308 0
6.73274 -2.31351 0
7.2336 -3.04318 0
7.96657 -3.91307 0
8.70347 -4.94609 0
2.02395 5.60077 0
3.08716 6.15492 0
2.36426 4.12752 0
2.4204 3.06129 0
3.52615 -0.460917 0
3.6162 0.613372 0
2.96223 2.28839 0
3.5461 1.52549 0
4.01318 5.89959 0
3.98552 6.79498 0
3.97433 7.94076 0
3.87394 9.2818 0
5.56993 -1.91652 0
4.50996 -1.12978 0
6.71565 -1.33644 0
7.59459 -2.03695 0
8.39942 -2.86212 0
9.28156 -3.77384 0
3.41987 4.87807 0
3.33959 3.38598 0
4.69211 0.130099 0
4.52 1.31021 0
4.06608 2.44425 0
4.57197 5.15405 0
4.84527 6.19281 0
4.98201 7.38277 0
5.04617 8.70361 0
5.88494 -0.435004 0
7.01311 -0.48839 0
7.76209 -1.08563 0
8.6876 -1.74648 0
9.70182 -2.5362 0
4.55368 3.82861 0
5.81938 1.09889 0
5.37278 2.53565 0
5.38209 4.62231 0
5.6143 5.52564 0
5.89934 6.67433 0
6.13292 7.9774 0
6.84861 0.463702 0
7.85635 -0.0256463 0
8.86365 -0.584547 0
9.95687 -1.25426 0
6.96327 1.34998 0
5.72335 3.77994 0
6.54408 2.19837 0
6.38286 3.08927 0
6.29514 4.68898 0
6.6958 5.84019 0
7.11565 7.11564 0
7.78763 0.968012 0
8.863 0.572976 0
10.0425 0.0500024 0
7.61954 2.00516 0
6.83224 3.90601 0
7.27281 2.94811 0
7.38146 4.88784 0
7.97761 6.13306 0
8.7266 1.72762 0
9.95683 1.35426 0
8.42452 2.83896 0
7.98501 3.91796 0
8.70371 5.04622 0
9.70189 2.63622 0
9.28173 3.87391 0
CELLS 542 2168
3 2 0 4
3 0 1 7
3 4 0 7
3 1 5 8
3 7 1 8
3 3 2 13
3 13 2 4
3 11 3 14
3 14 3 13
3 13 4 15
3 4 7 16
3 15 4 16
3 5 6 17
3 8 5 17
3 6 9 18
3 17 6 18
3 7 8 19
3 16 7 19
3 8 17 20
3 19 8 20
3 9 10 23
3 18 9 23
3 10 21 24
3 23 10 24
3 12 11 25
3 25 11 14
3 26 12 27
3 27 12 25
3 14 13 29
3 29 13 15
3 25 14 30
3 30 14 29
3 29 15 31
3 15 16 33
3 31 15 33
3 16 19 34
3 33 16 34
3 17 18 35
3 20 17 35
3 18 23 36
3 35 18 36
3 19 20 37
3 34 19 37
3 20 35 38
3 37 20 38
3 21 22 39
3 24 21 39
3 22 32 40
3 39 22 40
3 23 24 41
3 36 23 41
3 24 39 42
3 41 24 42
3 27 25 44
3 44 25 30
3 28 26 45
3 45 26 27
3 45 27 46
3 46 27 44
3 47 28 48
3 48 28 45
3 30 29 50
3 50 29 31
3 44 30 51
3 51 30 50
3 50 31 52
3 31 33 52
3 32 43 53
3 40 32 53
3 53 43 54
3 33 34 55
3 34 37 55
3 33 55 52
3 35 36 56
3 38 35 56
3 36 41 57
3 56 36 57
3 37 38 58
3 38 56 58
3 37 58 55
3 39 40 59
3 42 39 59
3 40 53 60
3 59 40 60
3 41 42 61
3 57 41 61
3 42 59 62
3 61 42 62
3 43 63 54
3 46 44 64
3 64 44 51
3 48 45 65
3 65 45 46
3 65 46 66
3 66 46 64
3 49 47 67
3 67 47 48
3 67 48 68
3 68 48 65
3 69 49 70
3 70 49 67
3 52 55 72
3 64 51 73
3 51 50 73
3 50 52 73
3 73 52 74
3 74 52 72
3 53 54 75
3 60 53 75
3 54 63 76
3 54 76 77
3 75 54 77
3 55 58 78
3 72 55 78
3 72 78 79
3 56 57 80
3 57 61 80
3 56 80 58
3 58 80 81
3 78 58 81
3 59 60 82
3 62 59 82
3 60 75 83
3 82 60 83
3 61 62 84
3 62 82 84
3 61 84 80
3 63 85 76
3 66 64 86
3 64 73 86
3 68 65 87
3 87 65 66
3 87 66 86
3 70 67 88
3 88 67 68
3 88 68 89
3 89 68 87
3 71 69 90
3 90 69 70
3 90 70 91
3 91 70 88
3 92 71 93
3 93 71 90
3 74 72 94
3 94 72 79
3 86 73 95
3 95 73 74
3 95 74 96
3 96 74 94
3 97 86 95
3 76 85 99
3 75 77 100
3 83 75 100
3 76 99 101
3 77 76 101
3 77 101 102
3 100 77 102
3 94 79 103
3 78 81 104
3 79 78 104
3 79 104 103
3 80 84 105
3 81 80 105
3 81 105 106
3 104 81 106
3 82 83 107
3 83 100 107
3 82 107 84
3 84 107 108
3 105 84 108
3 85 109 99
3 89 87 110
3 87 86 110
3 110 86 97
3 91 88 111
3 111 88 89
3 111 89 110
3 93 90 112
3 112 90 91
3 112 91 113
3 113 91 111
3 98 92 114
3 114 92 93
3 114 93 115
3 115 93 112
3 116 98 114
3 117 103 118
3 96 94 119
3 94 103 119
3 119 103 117
3 97 95 120
3 120 95 96
3 120 96 119
3 121 110 97
3 121 97 122
3 122 97 120
3 123 119 117
3 124 98 116
3 99 109 125
3 99 125 126
3 101 99 126
3 100 102 127
3 100 127 107
3 101 126 128
3 102 101 128
3 102 128 127
3 104 106 129
3 104 129 103
3 103 129 118
3 105 108 130
3 106 105 130
3 106 130 129
3 107 127 131
3 108 107 131
3 108 131 132
3 108 132 130
3 109 134 125
3 125 134 133
3 113 111 135
3 111 110 135
3 135 110 121
3 115 112 136
3 136 112 113
3 136 113 135
3 116 114 137
3 137 114 115
3 137 115 138
3 138 115 136
3 139 124 116
3 139 116 140
3 140 116 137
3 141 135 121
3 118 129 142
3 118 142 143
3 117 118 143
3 123 117 143
3 122 120 144
3 120 119 144
3 144 119 123
3 141 121 145
3 145 121 122
3 145 122 144
3 146 141 145
3 147 144 123
3 147 123 148
3 143 148 123
3 150 124 139
3 149 150 139
3 131 127 151
3 125 133 152
3 126 125 152
3 126 152 153
3 128 126 153
3 128 153 154
3 128 154 127
3 127 154 151
3 152 133 155
3 130 132 156
3 130 156 129
3 129 156 142
3 131 151 157
3 132 131 157
3 132 157 156
3 156 158 142
3 157 151 159
3 133 160 155
3 134 161 133
3 133 161 160
3 138 136 162
3 136 135 162
3 162 135 141
3 140 137 163
3 163 137 138
3 163 138 162
3 149 139 164
3 164 139 140
3 164 140 165
3 165 140 163
3 166 149 164
3 167 162 141
3 167 141 146
3 142 158 168
3 143 142 168
3 143 168 148
3 146 145 169
3 145 144 169
3 169 144 147
3 170 167 146
3 170 146 169
3 171 169 147
3 171 147 148
3 171 148 172
3 168 172 148
3 173 149 166
3 174 150 149
3 173 174 149
3 154 175 151
3 151 175 159
3 152 155 176
3 153 152 176
3 153 176 177
3 153 177 154
3 154 177 175
3 155 160 178
3 155 178 179
3 176 155 179
3 156 157 180
3 156 180 158
3 157 159 181
3 157 181 180
3 158 180 182
3 158 182 168
3 159 175 183
3 159 183 181
3 175 184 183
3 160 186 178
3 178 186 185
3 161 187 160
3 160 187 186
3 165 163 188
3 163 162 188
3 188 162 167
3 166 164 189
3 189 164 165
3 189 165 188
3 190 173 166
3 190 166 191
3 191 166 189
3 192 188 167
3 192 167 170
3 193 192 170
3 182 194 168
3 194 172 168
3 193 170 195
3 170 169 195
3 195 169 171
3 196 195 171
3 196 171 172
3 194 197 172
3 197 198 172
3 198 196 172
3 200 173 190
3 199 200 190
3 201 174 173
3 200 201 173
3 176 179 202
3 177 176 202
3 177 202 175
3 175 202 184
3 178 185 203
3 178 203 179
3 179 203 202
3 203 185 204
3 202 205 184
3 183 206 181
3 180 181 206
3 180 206 182
3 182 206 194
3 183 184 207
3 205 207 184
3 183 207 206
3 185 208 204
3 186 209 185
3 185 209 208
3 187 210 186
3 186 210 209
3 191 189 211
3 189 188 211
3 211 188 192
3 199 190 212
3 212 190 191
3 212 191 211
3 213 199 212
3 214 211 192
3 214 192 193
3 215 214 193
3 215 193 195
3 206 216 194
3 216 197 194
3 216 217 197
3 215 195 218
3 218 195 196
3 198 218 196
3 217 219 197
3 219 218 198
3 197 219 198
3 220 199 213
3 221 200 199
3 220 221 199
3 222 201 200
3 221 222 200
3 203 204 223
3 203 223 202
3 202 223 205
3 204 208 224
3 204 224 223
3 205 223 225
3 205 225 207
3 207 225 226
3 207 226 206
3 226 216 206
3 208 228 224
3 224 228 227
3 209 229 208
3 229 228 208
3 210 230 209
3 209 230 229
3 213 212 231
3 212 211 231
3 231 211 214
3 232 220 213
3 232 213 231
3 233 231 214
3 233 214 215
3 234 233 215
3 234 215 218
3 226 235 216
3 235 217 216
3 235 236 217
3 217 236 219
3 237 234 218
3 237 218 219
3 236 238 219
3 238 237 219
3 240 220 232
3 239 240 232
3 241 221 220
3 240 241 220
3 242 222 221
3 241 242 221
3 224 227 243
3 224 243 223
3 223 243 225
3 225 243 244
3 225 244 226
3 226 244 235
3 227 245 243
3 228 246 227
3 227 246 245
3 229 247 228
3 228 247 246
3 230 248 229
3 229 248 247
3 239 232 249
3 232 231 249
3 249 231 233
3 250 249 233
3 250 233 234
3 237 250 234
3 244 251 235
3 235 251 236
3 251 252 236
3 236 252 238
3 252 253 238
3 253 250 237
3 253 237 238
3 254 239 249
3 255 240 239
3 254 255 239
3 256 241 240
3 255 256 240
3 257 242 241
3 256 257 241
3 245 258 243
3 243 258 244
3 244 258 251
3 245 259 258
3 246 260 245
3 245 260 259
3 247 261 246
3 246 261 260
3 248 262 247
3 247 262 261
3 254 249 263
3 263 249 250
3 253 263 250
3 258 264 251
3 251 264 252
3 264 265 252
3 265 263 253
3 252 265 253
3 266 254 263
3 267 255 254
3 266 267 254
3 268 256 255
3 267 268 255
3 269 257 256
3 268 269 256
3 259 270 258
3 270 264 258
3 260 271 259
3 259 271 270
3 261 272 260
3 260 272 271
3 262 273 261
3 273 272 261
3 270 274 264
3 275 266 263
3 275 263 265
3 274 276 264
3 276 265 264
3 276 277 265
3 277 275 265
3 278 267 266
3 275 278 266
3 279 268 267
3 278 279 267
3 280 269 268
3 279 280 268
3 271 281 270
3 270 281 274
3 272 282 271
3 271 282 281
3 273 283 272
3 272 283 282
3 281 284 274
3 274 284 276
3 285 278 275
3 277 285 275
3 284 286 276
3 286 285 277
3 276 286 277
3 287 279 278
3 285 287 278
3 288 280 279
3 287 288 279
3 282 289 281
3 281 289 284
3 283 290 282
3 282 290 289
3 289 291 284
3 284 291 286
3 291 292 286
3 292 287 285
3 286 292 285
3 293 288 287
3 292 293 287
3 290 294 289
3 289 294 291
3 294 295 291
3 295 293 292
3 291 295 292
CELL_TYPES 542
5
5
5
5
5
5
5
5
5
5
5
5
5
5
5
5
5
5
5
5
5
5
5
5
5
5
5
5
5
5
5
5
5
5
5
5
5
5
5
5
5
5
5
5
5
5
5
5
5
5
5
5
5
5
5
5
5
5
5
5
5
5
5
5
5
5
5
5
5
5
5
5
5
5
5
5
5
5
5
5
5
5
5
5
5
5
5
5
5
5
5
5
5
5
5
5
5
5
5
5
5
5
5
5
5
5
5
5
5
5
5
5
5
5
5
5
5
5
5
5
5
5
5
5
5
5
5
5
5
5
5
5
5
5
5
5
5
5
5
5
5
5
5
5
5
5
5
5
5
5
5
5
5
5
5
5
5
5
5
5
5
5
5
5
5
5
5
5
5
5
5
5
5
5
5
5
5
5
5
5
5
5
5
5
5
5
5
5
5
5
5
5
5
5
5
5
5
5
5
5
5
5
5
5
5
5
5
5
5
5
5
5
5
5
5
5
5
5
5
5
5
5
5
5
5
5
5
5
5
5
5
5
5
5
5
5
5
5
5
5
5
5
5
5
5
5
5
5
5
5
5
5
5
5
5
5
5
5
5
5
5
5
5
5
5
5
5
5
5
5
5
5
5
5
5
5
5
5
5
5
5
5
5
5
5
5
5
5
5
5
5
5
5
5
5
5
5
5
5
5
5
5
5
5
5
5
5
5
5
5
5
5
5
5
5
5
5
5
5
5
5
5
5
5
5
5
5
5
5
5
5
5
5
5
5
5
5
5
5
5
5
5
5
5
5
5
5
5
5
5
5
5
5
5
5
5
5
5
5
5
5
5
5
5
5
5
5
5
5
5
5
5
5
5
5
5
5
5
5
5
5
5
5
5
5
5
5
5
5
5
5
5
5
5
5
5
5
5
5
5
5
5
5
5
5
5
5
5
5
5
5
5
5
5
5
5
5
5
5
5
5
5
5
5
5
5
5
5
5
5
5
5
5
5
5
5
5
5
5
5
5
5
5
5
5
5
5
5
5
5
5
5
5
5
5
5
5
5
5
5
5
5
5
5
5
5
5
5
5
5
5
5
5
5
5
5
5
5
5
5
5
5
5
5
5
5
5
5
5
5
5
5
5
5
5
5
5
5
5
5
5
5
5
5
5
5
5
5
5
5
5
5
5
5
5
5
5
5
5
5
5
5
5
5
5
5
5
5
5
5
5
5
5
5
5
5
5
5
5
5
5
5
POINT_DATA 296
SCALARS concentrations float 4
LOOKUP_TABLE default
0 0.998422 0.0892496 3.065
0 0.998422 0.0892256 3.05472
0 0.998422 0.0891759 3.03981
0 0.998422 0.0891061 3.0169
0 0.998427 0.0808627 0.00349906
0 0.998422 0.0891789 3.03657
0 0.998422 0.0891387 3.02123
0 0.998427 0.0808625 0.00340426
0 0.998427 0.0808624 0.00334656
0 0.998422 0.0891309 3.01812
0 0.998422 0.0891586 3.02834
0 0.998422 0.0890277 2.99209
0 0.998422 0.0890518 3.00739
0 0.998427 0.0808625 0.00363522
0 0.998427 0.0808617 0.00387584
0 0.998438 0.0808666 0.0044696
0 0.998438 0.0808661 0.00425415
0 0.998427 0.0808616 0.00326874
0 0.998427 0.0808614 0.00324184
0 0.998438 0.080866 0.00411917
0 0.998438 0.0808656 0.00402964
0 0.998422 0.0892748 3.07146
0 0.998422 0.0893648 3.10519
0 0.998427 0.0808613 0.00323181
0 0.998427 0.0808616 0.00325515
0 0.998427 0.0808622 0.0045883
0 0.998421 0.0887754 2.73674
0 0.998426 0.0808646 0.00676409
0 0.998422 0.0890515 3.00786
0 0.998438 0.0808668 0.00484357
0 0.998438 0.0808659 0.00524644
0 0.998449 0.0808611 0.00459438
0 0.998423 0.0891208 3.01582
0 0.99845 0.0808585 0.00413927
0 0.998448 0.0808613 0.00417336
0 0.998438 0.0808653 0.00397551
0 0.998438 0.0808654 0.00396243
0 0.99845 0.0808588 0.00390427
0 0.998448 0.0808618 0.0040388
0 0.998428 0.0808626 0.00332892
0 0.998428 0.0808634 0.00340199
0 0.998438 0.0808654 0.00395699
0 0.998438 0.0808656 0.00398744
0 0.998423 0.0890552 2.99255
0 0.998438 0.0808679 0.0063657
0 0.998427 0.0808645 0.00657769
0 0.998438 0.080869 0.00686412
0 0.998423 0.0889824 2.97645
0 0.998428 0.0808618 0.00441261
0 0.998424 0.0889459 2.95954
0 0.99845 0.0808594 0.00486851
0 0.998448 0.0808623 0.00557307
0 0.998458 0.0808472 0.00351298
0 0.998428 0.0808626 0.00339042
0 0.998428 0.0808615 0.0034057
0 0.998458 0.0808474 0.00323313
0 0.99845 0.0808593 0.00385835
0 0.998448 0.0808615 0.00396228
0 0.998458 0.080848 0.00313876
0 0.998439 0.0808658 0.00402622
0 0.998439 0.0808657 0.00404128
0 0.99845 0.0808599 0.00390216
0 0.998448 0.0808623 0.00405774
0 0.998424 0.088926 2.94606
0 0.99845 0.0808597 0.00567583
0 0.998438 0.0808679 0.00632261
0 0.998449 0.0808629 0.00610076
0 0.998428 0.0808607 0.00382103
0 0.998439 0.0808659 0.00531947
0 0.998424 0.0889287 2.95131
0 0.998429 0.0808601 0.00361673
0 0.998424 0.0889357 2.95325
0 0.998464 0.0808428 0.00303238
0 0.998458 0.0808476 0.00393963
0 0.998464 0.0808429 0.00326558
0 0.998439 0.0808655 0.00413803
0 0.998429 0.0808605 0.00340403
0 0.998439 0.0808654 0.00426311
0 0.998464 0.0808428 0.00287118
0 0.998469 0.0808411 0.00281807
0 0.998458 0.0808482 0.00309296
0 0.998464 0.0808434 0.00282075
0 0.998451 0.0808582 0.00378843
0 0.998449 0.0808597 0.00393545
0 0.998458 0.0808483 0.00309184
0 0.998424 0.0889738 2.96533
0 0.998458 0.0808472 0.00399801
0 0.998451 0.0808595 0.00535458
0 0.998439 0.0808657 0.00485296
0 0.998449 0.0808617 0.00513469
0 0.998429 0.0808599 0.00354885
0 0.99844 0.0808653 0.00462476
0 0.998425 0.0889305 2.95165
0 0.998429 0.0808598 0.00353776
0 0.99847 0.0808398 0.00282678
0 0.998464 0.0808432 0.00343904
0 0.99847 0.0808408 0.00311998
0 0.998464 0.0808426 0.00334824
0 0.998425 0.0889838 2.97272
0 0.99843 0.0808601 0.0035576
0 0.998451 0.0808592 0.00406767
0 0.99844 0.0808634 0.00427583
0 0.998449 0.0808613 0.00437599
0 0.998474 0.0808358 0.00222237
0 0.99847 0.0808401 0.0025712
0 0.998464 0.0808436 0.00278959
0 0.998469 0.0808415 0.00264638
0 0.998459 0.0808485 0.00314973
0 0.998465 0.0808432 0.00271515
0 0.998425 0.0889237 2.94911
0 0.998459 0.0808469 0.00369574
0 0.998451 0.0808592 0.00465442
0 0.99844 0.0808651 0.0045266
0 0.99845 0.0808621 0.00471131
0 0.99843 0.0808601 0.0036104
0 0.99844 0.0808649 0.00453201
0 0.998429 0.0808603 0.00375165
0 0.998477 0.0808337 0.00206919
0 0.998477 0.0808335 0.00190853
0 0.998474 0.0808352 0.00234765
0 0.998471 0.0808398 0.00307498
0 0.998465 0.0808422 0.00324294
0 0.99847 0.0808409 0.00324001
0 0.998478 0.0808318 0.00196066
0 0.998424 0.088959 2.96603
0 0.99843 0.0808604 0.00395258
0 0.998441 0.0808625 0.00450787
0 0.998459 0.0808505 0.00353666
0 0.998451 0.0808602 0.00452456
0 0.998474 0.0808358 0.00206354
0 0.998471 0.0808401 0.00246461
0 0.998465 0.0808432 0.0027865
0 0.99847 0.0808398 0.00240164
0 0.998429 0.0808622 0.00534013
0 0.998425 0.088938 2.9577
0 0.998459 0.0808467 0.0034884
0 0.998452 0.0808592 0.00447515
0 0.99844 0.080865 0.00469925
0 0.99845 0.0808613 0.0046851
0 0.998429 0.0808609 0.00416909
0 0.99844 0.0808651 0.00500925
0 0.998465 0.0808419 0.00319649
0 0.998478 0.0808318 0.00150387
0 0.998479 0.0808291 0.00139361
0 0.998475 0.0808346 0.00240737
0 0.998471 0.0808393 0.00301378
0 0.998471 0.0808405 0.00315714
0 0.998478 0.0808306 0.00186704
0 0.99848 0.0808255 0.00111761
0 0.998429 0.0808629 0.00552427
0 0.998424 0.0890207 2.99264
0 0.998466 0.0808437 0.0029573
0 0.998441 0.0808637 0.00515333
0 0.998451 0.0808619 0.00498536
0 0.99846 0.080851 0.00380806
0 0.99844 0.0808659 0.00570386
0 0.998475 0.0808354 0.00191264
0 0.998472 0.0808393 0.00241538
0 0.998478 0.0808316 0.00135398
0 0.99847 0.0808436 0.00302905
0 0.99843 0.0808623 0.00555899
0 0.998424 0.0887711 2.72802
0 0.99846 0.0808464 0.00350367
0 0.998452 0.0808587 0.00470692
0 0.99844 0.0808662 0.00573947
0 0.99845 0.0808616 0.00529522
0 0.998441 0.0808669 0.00622669
0 0.998465 0.0808421 0.00326594
0 0.99848 0.080825 0.000511569
0 0.998475 0.0808338 0.00229385
0 0.998472 0.0808395 0.00305812
0 0.998479 0.0808288 0.00157682
0 0.99848 0.0808238 0.000589021
0 0.99843 0.0808622 0.00556036
0 0.998424 0.0887093 2.77697
0 0.998465 0.0808447 0.00320782
0 0.998451 0.08086 0.00505425
0 0.998459 0.0808526 0.00419635
0 0.998441 0.0808663 0.00555086
0 0.998451 0.0808601 0.00510956
0 0.998476 0.080834 0.00170544
0 0.998475 0.0808371 0.00220077
0 0.998479 0.0808302 0.00106291
0 0.998472 0.0808409 0.00272656
0 0.998467 0.0808459 0.00338173
0 0.998441 0.0808651 0.00494061
0 0.99843 0.08086 0.00414425
0 0.998425 0.088843 2.92193
0 0.99846 0.0808465 0.00374573
0 0.998453 0.0808589 0.00537033
0 0.998441 0.0808655 0.00623941
0 0.998451 0.0808613 0.00587627
0 0.998466 0.0808424 0.00335967
0 0.998472 0.0808406 0.00317538
0 0.99848 0.0808277 0.0006318
0 0.998476 0.0808336 0.0021958
0 0.998479 0.0808296 0.00153609
0 0.998479 0.0808291 0.000921711
0 0.998479 0.0808298 0.00129846
0 0.998442 0.0808641 0.00585576
0 0.998431 0.0808589 0.00504093
0 0.998426 0.0889288 2.96487
0 0.99846 0.080849 0.00377776
0 0.998453 0.0808585 0.00473434
0 0.998451 0.0808615 0.00470955
0 0.998466 0.0808454 0.00324549
0 0.998476 0.0808331 0.00154365
0 0.998472 0.0808401 0.00256301
0 0.998442 0.0808641 0.0044947
0 0.998431 0.0808598 0.00377522
0 0.998426 0.0888838 2.933
0 0.99846 0.080846 0.00384717
0 0.998453 0.0808578 0.00544206
0 0.998452 0.0808616 0.00562957
0 0.998466 0.0808419 0.00321255
0 0.998473 0.0808391 0.00284862
0 0.998477 0.0808331 0.00137357
0 0.998477 0.0808352 0.00161692
0 0.998476 0.0808339 0.00198613
0 0.998477 0.0808344 0.00171064
0 0.998442 0.0808641 0.0054321
0 0.998432 0.0808574 0.00482714
0 0.998427 0.0888218 2.79515
0 0.99846 0.0808484 0.003491
0 0.998454 0.0808567 0.00399087
0 0.998467 0.0808424 0.00274202
0 0.998473 0.0808371 0.001989
0 0.998454 0.0808578 0.0038407
0 0.998443 0.0808642 0.00426435
0 0.998432 0.0808598 0.0035713
0 0.998427 0.0890186 2.97958
0 0.998461 0.0808453 0.00358312
0 0.998454 0.080858 0.00483059
0 0.998467 0.0808411 0.00291567
0 0.998472 0.08084 0.00276748
0 0.998473 0.0808378 0.00197282
0 0.998473 0.0808385 0.00206931
0 0.998473 0.0808388 0.00238232
0 0.998472 0.0808396 0.00228455
0 0.998453 0.0808599 0.00457379
0 0.998443 0.0808641 0.00490134
0 0.998432 0.0808577 0.00387525
0 0.998428 0.0887249 2.88367
0 0.998462 0.0808452 0.002867
0 0.998468 0.08084 0.0023126
0 0.998456 0.0808548 0.00345409
0 0.998444 0.080863 0.0039698
0 0.998433 0.0808592 0.00342498
0 0.998428 0.0890214 2.97827
0 0.998462 0.0808449 0.00311397
0 0.998467 0.080841 0.00266309
0 0.998469 0.080839 0.00213526
0 0.998468 0.0808396 0.0022303
0 0.998468 0.0808403 0.00240845
0 0.998455 0.0808566 0.0040017
0 0.998443 0.0808634 0.00441568
0 0.998433 0.0808584 0.00358978
0 0.998428 0.0888377 2.91895
0 0.998463 0.0808444 0.00260259
0 0.998455 0.0808564 0.00343863
0 0.998445 0.0808603 0.00362077
0 0.998434 0.080858 0.00326341
0 0.998429 0.0888829 2.92564
0 0.998462 0.0808449 0.0028454
0 0.998463 0.0808435 0.0024947
0 0.998463 0.080844 0.00261774
0 0.998454 0.0808589 0.00403454
0 0.998444 0.0808625 0.00413821
0 0.998433 0.0808582 0.00340656
0 0.998428 0.0889031 2.93888
0 0.998457 0.0808539 0.00324154
0 0.998446 0.0808587 0.00340736
0 0.998436 0.0808552 0.00287068
0 0.998431 0.0888156 2.90091
0 0.998455 0.0808566 0.00350295
0 0.998456 0.080856 0.00370186
0 0.998457 0.0808548 0.00344286
0 0.998455 0.0808581 0.00376458
0 0.998445 0.0808628 0.00405763
0 0.998434 0.0808575 0.00326455
0 0.998429 0.0888426 2.91357
0 0.998447 0.0808594 0.0035147
0 0.998437 0.0808537 0.00270289
0 0.998432 0.0889203 2.91392
0 0.998447 0.0808606 0.00372007
0 0.998445 0.0808624 0.00397327
0 0.998446 0.0808614 0.00383451
0 0.998435 0.0808571 0.00322922
0 0.99843 0.0886337 2.8345
0 0.998438 0.0808556 0.00308052
0 0.998433 0.0888595 2.91787
0 0.998437 0.080856 0.00316467
0 0.998436 0.080857 0.00321837
0 0.998431 0.0887316 2.86948
0 0.998434 0.0889275 2.87673
0 0.998432 0.0888202 2.90263
VECTORS fa_u float
0.00283234 0.00117136 0
0.00264608 0.00152629 0
0.00293675 0.000784824 0
0.00299138 0.00039162 0
-3.46224e-06 -5.06314e-07 0
0.00240946 0.00184805 0
0.00213629 0.00213638 0
-3.24855e-06 -1.0178e-06 0
-2.99068e-06 -1.50177e-06 0
0.00183672 0.0023949 0
0.0015129 0.00262335 0
0.00299209 -2.08039e-06 0
0.00298164 -0.000392713 0
-3.63279e-06 1.32783e-07 0
-3.77725e-06 8.68636e-07 0
-4.44877e-06 -4.30986e-07 0
-4.13382e-06 -1.00463e-06 0
-2.67364e-06 -1.88051e-06 0
-2.34446e-06 -2.23898e-06 0
-3.77856e-06 -1.64013e-06 0
-3.42614e-06 -2.12121e-06 0
0.00117348 0.00283846 0
0.000801552 0.00299995 0
-1.98364e-06 -2.55142e-06 0
-1.60511e-06 -2.83189e-06 0
-4.17656e-06 1.89969e-06 0
0.00264326 -0.000709162 0
-5.86435e-06 3.37081e-06 0
0.00277831 -0.00115247 0
-4.82316e-06 4.44123e-07 0
-5.12123e-06 1.13934e-06 0
-4.59404e-06 -5.59072e-08 0
0.000391408 0.00299031 0
-4.0761e-06 -7.20417e-07 0
-3.96276e-06 -1.30902e-06 0
-3.02302e-06 -2.58186e-06 0
-2.63758e-06 -2.95703e-06 0
-3.4677e-06 -1.79399e-06 0
-3.27362e-06 -2.36545e-06 0
-1.20742e-06 -3.10224e-06 0
-7.52744e-07 -3.31767e-06 0
-2.13839e-06 -3.32942e-06 0
-1.72807e-06 -3.59352e-06 0
-2.44215e-06 0.00299255 0
-6.04965e-06 1.98087e-06 0
-6.57027e-06 3.12228e-07 0
-6.59789e-06 1.89316e-06 0
0.00257787 -0.0014879 0
-4.34228e-06 7.84673e-07 0
0.0023482 -0.00180134 0
-4.831e-06 6.032e-07 0
-5.45299e-06 1.15065e-06 0
-3.51293e-06 1.72309e-08 0
-1.97961e-07 -3.38463e-06 0
3.36413e-07 -3.38905e-06 0
-3.11747e-06 -8.57031e-07 0
-2.78407e-06 -2.67129e-06 0
-2.41563e-06 -3.14076e-06 0
-2.65096e-06 -1.68054e-06 0
-1.17563e-06 -3.85076e-06 0
-5.78944e-07 -3.99959e-06 0
-1.95856e-06 -3.37504e-06 0
-1.51889e-06 -3.76275e-06 0
-0.000386924 0.00292054 0
-5.48487e-06 1.45988e-06 0
-6.08669e-06 1.71104e-06 0
-5.80354e-06 1.88102e-06 0
-3.51926e-06 1.48832e-06 0
-4.96397e-06 1.91201e-06 0
0.00208694 -0.00208685 0
-2.98722e-06 2.03893e-06 0
0.00179753 -0.00234319 0
-3.01336e-06 -3.39115e-07 0
-3.85208e-06 8.25896e-07 0
-3.24677e-06 3.49981e-07 0
1.65926e-07 -4.1347e-06 0
8.44756e-07 -3.29755e-06 0
7.35614e-07 -4.19916e-06 0
-2.66105e-06 -1.07819e-06 0
-2.73518e-06 -6.78462e-07 0
-2.06348e-06 -2.30401e-06 0
-2.23661e-06 -1.71878e-06 0
-8.74435e-07 -3.68613e-06 0
-2.30598e-07 -3.92869e-06 0
-1.31904e-06 -2.79636e-06 0
-0.000769556 0.00286373 0
-3.74227e-06 1.40695e-06 0
-4.95716e-06 2.02437e-06 0
-4.17033e-06 2.48185e-06 0
-4.55025e-06 2.37914e-06 0
-2.5059e-06 2.51292e-06 0
-3.53466e-06 2.98238e-06 0
0.00147511 -0.00255662 0
-2.01901e-06 2.90505e-06 0
-2.82604e-06 -6.44232e-08 0
-3.27833e-06 1.03902e-06 0
-3.06356e-06 5.90653e-07 0
-2.96543e-06 1.55467e-06 0
0.0011366 -0.00274685 0
1.50883e-06 -3.22179e-06 0
3.05196e-07 -4.0562e-06 0
1.40658e-06 -4.03785e-06 0
1.03631e-06 -4.25151e-06 0
-2.17576e-06 -4.52765e-07 0
-2.25185e-06 -1.24106e-06 0
-1.64988e-06 -2.24938e-06 0
-1.8913e-06 -1.85103e-06 0
-4.47856e-07 -3.11773e-06 0
-9.6544e-07 -2.5377e-06 0
-0.00112989 0.00272408 0
-3.15526e-06 1.92429e-06 0
-3.75045e-06 2.7564e-06 0
-2.88838e-06 3.48531e-06 0
-3.28974e-06 3.37254e-06 0
-1.47842e-06 3.29382e-06 0
-2.28957e-06 3.91114e-06 0
-8.49395e-07 3.65423e-06 0
-2.06917e-06 7.66736e-09 0
-1.79378e-06 -6.51808e-07 0
-2.3043e-06 4.49066e-07 0
-2.85135e-06 1.15123e-06 0
-2.47207e-06 2.09893e-06 0
-2.70167e-06 1.78848e-06 0
-1.85322e-06 6.40129e-07 0
0.000766635 -0.00286524 0
2.35148e-06 -3.17702e-06 0
2.0449e-06 -4.01737e-06 0
4.75602e-07 -3.50453e-06 0
1.59109e-06 -4.23558e-06 0
-1.60318e-06 -1.29924e-06 0
-1.24882e-06 -2.12479e-06 0
-1.81008e-07 -2.78061e-06 0
-5.90168e-07 -2.328e-06 0
3.81686e-06 -3.73479e-06 0
-0.00147856 0.00256161 0
-2.39195e-06 2.53919e-06 0
-2.58907e-06 3.65016e-06 0
-1.58671e-06 4.42327e-06 0
-2.04588e-06 4.2148e-06 0
-5.1866e-08 4.16876e-06 0
-9.00277e-07 4.92768e-06 0
-1.83698e-06 2.61592e-06 0
-1.09887e-06 -1.0267e-06 0
-1.38799e-06 -1.25087e-07 0
-2.03517e-06 1.28589e-06 0
-2.10215e-06 2.1596e-06 0
-1.51478e-06 2.77001e-06 0
-1.41422e-06 1.21894e-06 0
-9.37169e-07 6.08905e-07 0
8.41337e-07 5.45983e-06 0
0.000391086 -0.00296697 0
5.44043e-07 -2.90682e-06 0
2.84286e-06 -4.29825e-06 0
2.20323e-06 -4.47209e-06 0
1.21956e-06 -3.6075e-06 0
3.19964e-06 -4.7219e-06 0
-7.20561e-07 -1.77172e-06 0
1.03913e-08 -2.41536e-06 0
-4.4995e-07 -1.27703e-06 0
8.07186e-07 -2.91952e-06 0
2.35071e-06 -5.03751e-06 0
-0.00165998 0.00216484 0
-1.55448e-06 3.13995e-06 0
-1.39771e-06 4.49461e-06 0
-2.23859e-07 5.7351e-06 0
-8.32083e-07 5.22944e-06 0
-4.17292e-08 6.22656e-06 0
-1.13496e-06 3.06239e-06 0
-4.14348e-07 -3.0003e-07 0
-1.26204e-06 1.91546e-06 0
-9.45293e-07 2.90836e-06 0
-7.20349e-07 1.40266e-06 0
-8.55055e-08 5.82782e-07 0
-6.63207e-07 5.52066e-06 0
1.91426e-07 -0.00277697 0
1.37533e-06 -2.89803e-06 0
2.60504e-06 -4.3312e-06 0
2.01966e-06 -3.67836e-06 0
3.23382e-06 -4.51159e-06 0
2.95509e-06 -4.16834e-06 0
1.10224e-08 -1.70541e-06 0
5.76374e-07 -2.12395e-06 0
2.54164e-07 -1.03208e-06 0
1.31618e-06 -2.38785e-06 0
1.90145e-06 -2.79653e-06 0
3.1215e-06 -3.82961e-06 0
2.12031e-06 -3.56077e-06 0
-0.00206527 0.00206696 0
-8.05978e-07 3.65799e-06 0
-4.48975e-07 5.35153e-06 0
2.4967e-07 6.23441e-06 0
4.38916e-08 5.87611e-06 0
-5.50106e-07 3.31433e-06 0
-2.63763e-07 3.16441e-06 0
5.21654e-07 -3.56439e-07 0
-3.8976e-07 2.16093e-06 0
-7.36181e-08 1.53432e-06 0
8.34034e-07 3.92348e-07 0
5.42406e-07 1.17975e-06 0
5.56156e-07 5.82929e-06 0
5.67998e-07 5.00882e-06 0
-0.000386839 -0.00293952 0
2.19294e-06 -3.07612e-06 0
3.0221e-06 -3.6443e-06 0
3.30254e-06 -3.35754e-06 0
2.14921e-06 -2.4319e-06 0
9.48897e-07 -1.21756e-06 0
1.76388e-06 -1.85951e-06 0
3.32325e-06 -3.02627e-06 0
2.43303e-06 -2.88663e-06 0
-0.00232521 0.00178769 0
-1.55317e-07 3.84404e-06 0
3.68068e-07 5.4296e-06 0
8.73692e-07 5.56136e-06 0
1.08018e-07 3.21073e-06 0
3.14143e-07 2.83124e-06 0
1.28429e-06 -4.87124e-07 0
1.58411e-06 3.24076e-07 0
5.17785e-07 1.91745e-06 0
1.22398e-06 1.19506e-06 0
8.54913e-07 5.36441e-06 0
-1.35442e-07 4.82524e-06 0
-0.000721371 -0.00270046 0
2.49183e-06 -2.44496e-06 0
3.17306e-06 -2.42048e-06 0
2.22423e-06 -1.60357e-06 0
1.74208e-06 -9.59834e-07 0
3.39403e-06 -1.79766e-06 0
3.53906e-06 -2.37902e-06 0
2.74989e-06 -2.27866e-06 0
-0.00257865 0.0014928 0
4.45683e-07 3.55529e-06 0
1.13762e-06 4.69473e-06 0
6.43233e-07 2.84384e-06 0
9.20529e-07 2.6099e-06 0
1.95899e-06 -2.33191e-07 0
1.9719e-06 6.27444e-07 0
1.32395e-06 1.98056e-06 0
1.82566e-06 1.37335e-06 0
1.71657e-06 4.23945e-06 0
1.27766e-06 4.73188e-06 0
4.13428e-07 3.85313e-06 0
-0.00110102 -0.00266521 0
2.51016e-06 -1.38521e-06 0
2.18218e-06 -7.65657e-07 0
3.28409e-06 -1.07026e-06 0
3.63954e-06 -1.58527e-06 0
2.95263e-06 -1.73564e-06 0
-0.00275007 0.00114334 0
1.09689e-06 2.91438e-06 0
1.22717e-06 2.36349e-06 0
2.13213e-06 1.15504e-07 0
2.01383e-06 9.58489e-07 0
1.67919e-06 1.72654e-06 0
2.02641e-06 3.45069e-06 0