# vtk DataFile Version 2.0
CellBP Time: 1.52
ASCII
DATASET UNSTRUCTURED_GRID
POINTS 296 double
-9.11472 -3.74614 0
-8.54097 -4.91004 0
-9.53218 -2.51754 0
-9.78547 -1.24485 0
-8.35796 -2.81884 0
-7.82038 -5.98918 0
-6.96473 -6.96472 0
-7.91761 -3.8749 0
-7.34303 -4.86809 0
-5.98913 -7.82037 0
-4.91021 -8.54129 0
-9.8709 0.0499973 0
-9.78595 1.34493 0
-8.65807 -1.68402 0
-8.78672 -0.529647 0
-7.59009 -2.00424 0
-7.22613 -2.90663 0
-6.63799 -5.77919 0
-5.82272 -6.59726 0
-6.79064 -3.88912 0
-6.22093 -4.67618 0
-3.74622 -9.11478 0
-2.51723 -9.53108 0
-4.90674 -7.30921 0
-3.91323 -7.88667 0
-8.79317 0.643429 0
-9.53356 2.6179 0
-8.6237 1.77417 0
-9.11569 3.84653 0
-7.7447 -0.929027 0
-7.79493 0.0802608 0
-6.95293 -1.31595 0
-1.24485 -9.78553 0
-6.44183 -2.15323 0
-6.31973 -3.05629 0
-5.53685 -5.47488 0
-4.79619 -6.11583 0
-5.65935 -3.75722 0
-5.2697 -4.56185 0
-2.86633 -8.36441 0
-1.77866 -8.64073 0
-3.92837 -6.72396 0
-3.0568 -7.15304 0
0.0499989 -9.87078 0
-7.70594 1.14358 0
-8.33903 2.91558 0
-7.55234 2.11209 0
-8.542 5.01061 0
-7.88051 3.97846 0
-7.82115 6.08977 0
-6.77908 -0.396877 0
-6.95695 0.552578 0
-5.77171 -1.00346 0
-0.59087 -8.81024 0
0.565716 -8.77143 0
-5.30341 -2.4804 0
-4.49223 -5.09603 0
-3.90273 -5.77567 0
-4.43916 -3.80496 0
-2.06254 -7.56243 0
-1.13555 -7.78635 0
-2.99473 -6.10244 0
-2.30916 -6.62022 0
1.34499 -9.78657 0
-6.68987 1.42213 0
-7.17265 3.11832 0
-6.65968 2.37316 0
-7.2952 4.98898 0
-6.71854 4.00333 0
-6.96553 7.06555 0
-6.57294 5.89455 0
-5.98979 7.92122 0
-4.45333 -1.18112 0
-5.81493 0.513788 0
-4.6564 -0.0103795 0
0.00852039 -7.84865 0
1.73868 -8.6444 0
0.94903 -7.764 0
-4.03872 -2.40651 0
-3.48572 -1.39126 0
-3.2947 -4.80562 0
-3.26604 -3.26795 0
-1.37867 -6.67592 0
-0.508776 -7.02545 0
-1.97567 -5.53737 0
2.61784 -9.53336 0
-5.50768 2.03705 0
-6.09516 3.07243 0
-6.10557 4.87002 0
-5.76218 3.99179 0
-5.76176 6.71769 0
-5.45259 5.61984 0
-4.91068 8.64217 0
-4.83888 7.4052 0
-3.50167 -0.424322 0
-4.44955 1.24911 0
-3.71166 0.592107 0
-4.0624 2.31995 0
-3.74664 9.21592 0
2.86284 -8.33355 0
0.419722 -6.79598 0
2.02219 -7.5265 0
1.3062 -6.90616 0
-2.44478 -0.873853 0
-2.83852 -2.13124 0
-2.29454 -4.09761 0
-2.32577 -2.97376 0
-0.442413 -5.86159 0
-1.2228 -4.49941 0
3.84678 -9.11624 0
-4.79015 3.39205 0
-5.08838 4.59455 0
-4.64761 6.28204 0
-4.53929 5.36023 0
-3.8441 7.99414 0
-3.82713 6.8464 0
-2.78358 8.42368 0
-1.64912 -0.137902 0
-1.45033 -0.890625 0
-2.48924 0.507286 0
-3.2538 1.44424 0
-3.23924 3.31678 0
-2.91115 2.37191 0
-1.35516 0.627138 0
-2.51782 9.63324 0
3.93309 -7.88776 0
2.96484 -7.15847 0
0.954169 -5.8225 0
2.07454 -6.41614 0
-1.68305 -1.99216 0
-1.43451 -3.27796 0
0.0902272 -4.74732 0
-0.566207 -3.69464 0
4.93266 -7.31957 0
5.01067 -8.54216 0
-3.77727 4.55201 0
-3.73513 5.75272 0
-2.88829 7.29066 0
-3.01001 6.3544 0
-1.66273 8.73461 0
-1.94033 7.62021 0
-2.33854 4.05197 0
-0.730764 -1.32731 0
-0.836933 -0.257634 0
-1.9363 1.68087 0
-2.12589 2.87602 0
-1.30665 3.54492 0
-0.869499 1.35089 0
-0.282377 0.456069 0
-0.533579 8.87269 0
-1.24492 9.88612 0
1.11287 -4.57495 0
3.91058 -6.71808 0
2.98824 -6.09543 0
2.11806 -5.42547 0
4.78501 -6.20611 0
-0.558882 -2.47694 0
0.495143 -3.46405 0
0.0535561 -1.61056 0
1.482 -3.68242 0
5.86789 -6.61548 0
6.08997 -7.82145 0
-2.47591 5.34899 0
-2.13069 6.5352 0
-0.904181 7.80426 0
-1.2725 6.93288 0
0.0862152 7.88138 0
-1.14455 4.49507 0
0.150328 -0.617673 0
-0.797469 2.48865 0
-0.331668 3.60098 0
0.0631118 1.5128 0
0.741473 0.473445 0
0.646866 8.87538 0
0.0500236 9.97174 0
2.38123 -4.28564 0
3.85965 -5.64114 0
3.00179 -5.21335 0
5.57454 -5.49259 0
4.69165 -5.28376 0
0.629711 -2.29349 0
1.25626 -2.95143 0
0.757535 -1.39152 0
2.16452 -3.13608 0
2.99406 -3.47692 0
6.15609 -4.79251 0
6.65655 -5.77015 0
7.06584 -6.96584 0
-1.01974 5.821 0
-0.372665 6.88451 0
1.12279 7.77071 0
0.558052 7.0808 0
-0.000764123 4.72563 0
0.607053 3.82814 0
1.33899 -0.641929 0
0.539137 2.65123 0
0.966142 1.57503 0
1.91032 0.213881 0
1.61487 1.0651 0
2.12974 7.5848 0
1.79949 8.71377 0
1.34502 9.88655 0
3.8233 -4.35214 0
5.11735 -4.44969 0
5.84668 -3.93576 0
3.78443 -3.20142 0
1.81242 -1.88276 0
3.01945 -2.57415 0
6.78454 -3.94855 0
7.3827 -4.89763 0
7.92138 -5.98995 0
0.48342 5.88233 0
1.4284 6.74301 0
2.37475 6.67025 0
1.21012 4.55671 0
1.48833 3.39797 0
2.43601 -0.692078 0
2.82832 0.142618 0
1.78905 2.16304 0
2.61213 1.15026 0
3.0726 7.17147 0
2.90476 8.37838 0
2.61812 9.63422 0
4.91202 -3.32838 0
6.1218 -3.10923 0
4.17342 -2.27555 0
3.2448 -1.50307 0
6.73267 -2.31348 0
7.23353 -3.04315 0
7.9665 -3.91303 0
8.6418 -4.9105 0
2.02394 5.60072 0
3.08713 6.15485 0
2.36424 4.12748 0
2.42037 3.06126 0
3.52611 -0.460914 0
3.61617 0.613365 0
2.9622 2.28837 0
3.54607 1.52547 0
4.01313 5.89952 0
3.98548 6.79491 0
3.9743 7.94069 0
3.84723 9.21732 0
5.56988 -1.91651 0
4.50992 -1.12977 0
6.71558 -1.33642 0
7.59451 -2.03693 0
8.39935 -2.86209 0
9.2158 -3.74658 0
3.41984 4.87803 0
3.33956 3.38595 0
4.69207 0.130097 0
4.51996 1.3102 0
4.06604 2.44423 0
4.57192 5.15399 0
4.84522 6.19274 0
4.98197 7.38271 0
5.01093 8.6426 0
5.88489 -0.434999 0
7.01303 -0.488384 0
7.76201 -1.08562 0
8.68753 -1.74646 0
9.6336 -2.5179 0
4.55364 3.82858 0
5.81934 1.09888 0
5.37273 2.53563 0
5.38203 4.62226 0
5.61424 5.52558 0
5.89929 6.67427 0
6.08986 7.92129 0
6.84854 0.463698 0
7.85627 -0.0256459 0
8.86357 -0.58454 0
9.88707 -1.24506 0
6.96319 1.34996 0
5.72329 3.7799 0
6.54401 2.19834 0
6.38279 3.08923 0
6.29507 4.68893 0
6.69574 5.84014 0
7.06587 7.06583 0
7.78755 0.968002 0
8.86293 0.572972 0
9.9719 0.0500029 0
7.61946 2.00514 0
6.83217 3.90597 0
7.27273 2.94808 0
7.3814 4.8878 0
7.92239 6.0907 0
8.72652 1.72761 0
9.88687 1.34506 0
8.42445 2.83893 0
7.98494 3.91792 0
8.64318 5.01131 0
9.63369 2.61796 0
9.21666 3.84697 0
CELLS 542 2168
3 2 0 4
3 0 1 7
3 4 0 7
3 1 5 8
3 7 1 8
3 3 2 13
3 13 2 4
3 11 3 14
3 14 3 13
3 13 4 15
3 4 7 16
3 15 4 16
3 5 6 17
3 8 5 17
3 6 9 18
3 17 6 18
3 7 8 19
3 16 7 19
3 8 17 20
3 19 8 20
3 9 10 23
3 18 9 23
3 10 21 24
3 23 10 24
3 12 11 25
3 25 11 14
3 26 12 27
3 27 12 25
3 14 13 29
3 29 13 15
3 25 14 30
3 30 14 29
3 29 15 31
3 15 16 33
3 31 15 33
3 16 19 34
3 33 16 34
3 17 18 35
3 20 17 35
3 18 23 36
3 35 18 36
3 19 20 37
3 34 19 37
3 20 35 38
3 37 20 38
3 21 22 39
3 24 21 39
3 22 32 40
3 39 22 40
3 23 24 41
3 36 23 41
3 24 39 42
3 41 24 42
3 27 25 44
3 44 25 30
3 28 26 45
3 45 26 27
3 45 27 46
3 46 27 44
3 47 28 48
3 48 28 45
3 30 29 50
3 50 29 31
3 44 30 51
3 51 30 50
3 50 31 52
3 31 33 52
3 32 43 53
3 40 32 53
3 53 43 54
3 33 34 55
3 34 37 55
3 33 55 52
3 35 36 56
3 38 35 56
3 36 41 57
3 56 36 57
3 37 38 58
3 38 56 58
3 37 58 55
3 39 40 59
3 42 39 59
3 40 53 60
3 59 40 60
3 41 42 61
3 57 41 61
3 42 59 62
3 61 42 62
3 43 63 54
3 46 44 64
3 64 44 51
3 48 45 65
3 65 45 46
3 65 46 66
3 66 46 64
3 49 47 67
3 67 47 48
3 67 48 68
3 68 48 65
3 69 49 70
3 70 49 67
3 52 55 72
3 64 51 73
3 51 50 73
3 50 52 73
3 73 52 74
3 74 52 72
3 53 54 75
3 60 53 75
3 54 63 76
3 54 76 77
3 75 54 77
3 55 58 78
3 72 55 78
3 72 78 79
3 56 57 80
3 57 61 80
3 56 80 58
3 58 80 81
3 78 58 81
3 59 60 82
3 62 59 82
3 60 75 83
3 82 60 83
3 61 62 84
3 62 82 84
3 61 84 80
3 63 85 76
3 66 64 86
3 64 73 86
3 68 65 87
3 87 65 66
3 87 66 86
3 70 67 88
3 88 67 68
3 88 68 89
3 89 68 87
3 71 69 90
3 90 69 70
3 90 70 91
3 91 70 88
3 92 71 93
3 93 71 90
3 74 72 94
3 94 72 79
3 86 73 95
3 95 73 74
3 95 74 96
3 96 74 94
3 97 86 95
3 76 85 99
3 75 77 100
3 83 75 100
3 76 99 101
3 77 76 101
3 77 101 102
3 100 77 102
3 94 79 103
3 78 81 104
3 79 78 104
3 79 104 103
3 80 84 105
3 81 80 105
3 81 105 106
3 104 81 106
3 82 83 107
3 83 100 107
3 82 107 84
3 84 107 108
3 105 84 108
3 85 109 99
3 89 87 110
3 87 86 110
3 110 86 97
3 91 88 111
3 111 88 89
3 111 89 110
3 93 90 112
3 112 90 91
3 112 91 113
3 113 91 111
3 98 92 114
3 114 92 93
3 114 93 115
3 115 93 112
3 116 98 114
3 117 103 118
3 96 94 119
3 94 103 119
3 119 103 117
3 97 95 120
3 120 95 96
3 120 96 119
3 121 110 97
3 121 97 122
3 122 97 120
3 123 119 117
3 124 98 116
3 99 109 125
3 99 125 126
3 101 99 126
3 100 102 127
3 100 127 107
3 101 126 128
3 102 101 128
3 102 128 127
3 104 106 129
3 104 129 103
3 103 129 118
3 105 108 130
3 106 105 130
3 106 130 129
3 107 127 131
3 108 107 131
3 108 131 132
3 108 132 130
3 109 134 125
3 125 134 133
3 113 111 135
3 111 110 135
3 135 110 121
3 115 112 136
3 136 112 113
3 136 113 135
3 116 114 137
3 137 114 115
3 137 115 138
3 138 115 136
3 139 124 116
3 139 116 140
3 140 116 137
3 141 135 121
3 118 129 142
3 118 142 143
3 117 118 143
3 123 117 143
3 122 120 144
3 120 119 144
3 144 119 123
3 141 121 145
3 145 121 122
3 145 122 144
3 146 141 145
3 147 144 123
3 147 123 148
3 143 148 123
3 150 124 139
3 149 150 139
3 131 127 151
3 125 133 152
3 126 125 152
3 126 152 153
3 128 126 153
3 128 153 154
3 128 154 127
3 127 154 151
3 152 133 155
3 130 132 156
3 130 156 129
3 129 156 142
3 131 151 157
3 132 131 157
3 132 157 156
3 156 158 142
3 157 151 159
3 133 160 155
3 134 161 133
3 133 161 160
3 138 136 162
3 136 135 162
3 162 135 141
3 140 137 163
3 163 137 138
3 163 138 162
3 149 139 164
3 164 139 140
3 164 140 165
3 165 140 163
3 166 149 164
3 167 162 141
3 167 141 146
3 142 158 168
3 143 142 168
3 143 168 148
3 146 145 169
3 145 144 169
3 169 144 147
3 170 167 146
3 170 146 169
3 171 169 147
3 171 147 148
3 171 148 172
3 168 172 148
3 173 149 166
3 174 150 149
3 173 174 149
3 154 175 151
3 151 175 159
3 152 155 176
3 153 152 176
3 153 176 177
3 153 177 154
3 154 177 175
3 155 160 178
3 155 178 179
3 176 155 179
3 156 157 180
3 156 180 158
3 157 159 181
3 157 181 180
3 158 180 182
3 158 182 168
3 159 175 183
3 159 183 181
3 175 184 183
3 160 186 178
3 178 186 185
3 161 187 160
3 160 187 186
3 165 163 188
3 163 162 188
3 188 162 167
3 166 164 189
3 189 164 165
3 189 165 188
3 190 173 166
3 190 166 191
3 191 166 189
3 192 188 167
3 192 167 170
3 193 192 170
3 182 194 168
3 194 172 168
3 193 170 195
3 170 169 195
3 195 169 171
3 196 195 171
3 196 171 172
3 194 197 172
3 197 198 172
3 198 196 172
3 200 173 190
3 199 200 190
3 201 174 173
3 200 201 173
3 176 179 202
3 177 176 202
3 177 202 175
3 175 202 184
3 178 185 203
3 178 203 179
3 179 203 202
3 203 185 204
3 202 205 184
3 183 206 181
3 180 181 206
3 180 206 182
3 182 206 194
3 183 184 207
3 205 207 184
3 183 207 206
3 185 208 204
3 186 209 185
3 185 209 208
3 187 210 186
3 186 210 209
3 191 189 211
3 189 188 211
3 211 188 192
3 199 190 212
3 212 190 191
3 212 191 211
3 213 199 212
3 214 211 192
3 214 192 193
3 215 214 193
3 215 193 195
3 206 216 194
3 216 197 194
3 216 217 197
3 215 195 218
3 218 195 196
3 198 218 196
3 217 219 197
3 219 218 198
3 197 219 198
3 220 199 213
3 221 200 199
3 220 221 199
3 222 201 200
3 221 222 200
3 203 204 223
3 203 223 202
3 202 223 205
3 204 208 224
3 204 224 223
3 205 223 225
3 205 225 207
3 207 225 226
3 207 226 206
3 226 216 206
3 208 228 224
3 224 228 227
3 209 229 208
3 229 228 208
3 210 230 209
3 209 230 229
3 213 212 231
3 212 211 231
3 231 211 214
3 232 220 213
3 232 213 231
3 233 231 214
3 233 214 215
3 234 233 215
3 234 215 218
3 226 235 216
3 235 217 216
3 235 236 217
3 217 236 219
3 237 234 218
3 237 218 219
3 236 238 219
3 238 237 219
3 240 220 232
3 239 240 232
3 241 221 220
3 240 241 220
3 242 222 221
3 241 242 221
3 224 227 243
3 224 243 223
3 223 243 225
3 225 243 244
3 225 244 226
3 226 244 235
3 227 245 243
3 228 246 227
3 227 246 245
3 229 247 228
3 228 247 246
3 230 248 229
3 229 248 247
3 239 232 249
3 232 231 249
3 249 231 233
3 250 249 233
3 250 233 234
3 237 250 234
3 244 251 235
3 235 251 236
3 251 252 236
3 236 252 238
3 252 253 238
3 253 250 237
3 253 237 238
3 254 239 249
3 255 240 239
3 254 255 239
3 256 241 240
3 255 256 240
3 257 242 241
3 256 257 241
3 245 258 243
3 243 258 244
3 244 258 251
3 245 259 258
3 246 260 245
3 245 260 259
3 247 261 246
3 246 261 260
3 248 262 247
3 247 262 261
3 254 249 263
3 263 249 250
3 253 263 250
3 258 264 251
3 251 264 252
3 264 265 252
3 265 263 253
3 252 265 253
3 266 254 263
3 267 255 254
3 266 267 254
3 268 256 255
3 267 268 255
3 269 257 256
3 268 269 256
3 259 270 258
3 270 264 258
3 260 271 259
3 259 271 270
3 261 272 260
3 260 272 271
3 262 273 261
3 273 272 261
3 270 274 264
3 275 266 263
3 275 263 265
3 274 276 264
3 276 265 264
3 276 277 265
3 277 275 265
3 278 267 266
3 275 278 266
3 279 268 267
3 278 279 267
3 280 269 268
3 279 280 268
3 271 281 270
3 270 281 274
3 272 282 271
3 271 282 281
3 273 283 272
3 272 283 282
3 281 284 274
3 274 284 276
3 285 278 275
3 277 285 275
3 284 286 276
3 286 285 277
3 276 286 277
3 287 279 278
3 285 287 278
3 288 280 279
3 287 288 279
3 282 289 281
3 281 289 284
3 283 290 282
3 282 290 289
3 289 291 284
3 284 291 286
3 291 292 286
3 292 287 285
3 286 292 285
3 293 288 287
3 292 293 287
3 290 294 289
3 289 294 291
3 294 295 291
3 295 293 292
3 291 295 292
CELL_TYPES 542
5
5
5
5
5
5
5
5
5
5
5
5
5
5
5
5
5
5
5
5
5
5
5
5
5
5
5
5
5
5
5
5
5
5
5
5
5
5
5
5
5
5
5
5
5
5
5
5
5
5
5
5
5
5
5
5
5
5
5
5
5
5
5
5
5
5
5
5
5
5
5
5
5
5
5
5
5
5
5
5
5
5
5
5
5
5
5
5
5
5
5
5
5
5
5
5
5
5
5
5
5
5
5
5
5
5
5
5
5
5
5
5
5
5
5
5
5
5
5
5
5
5
5
5
5
5
5
5
5
5
5
5
5
5
5
5
5
5
5
5
5
5
5
5
5
5
5
5
5
5
5
5
5
5
5
5
5
5
5
5
5
5
5
5
5
5
5
5
5
5
5
5
5
5
5
5
5
5
5
5
5
5
5
5
5
5
5
5
5
5
5
5
5
5
5
5
5
5
5
5
5
5
5
5
5
5
5
5
5
5
5
5
5
5
5
5
5
5
5
5
5
5
5
5
5
5
5
5
5
5
5
5
5
5
5
5
5
5
5
5
5
5
5
5
5
5
5
5
5
5
5
5
5
5
5
5
5
5
5
5
5
5
5
5
5
5
5
5
5
5
5
5
5
5
5
5
5
5
5
5
5
5
5
5
5
5
5
5
5
5
5
5
5
5
5
5
5
5
5
5
5
5
5
5
5
5
5
5
5
5
5
5
5
5
5
5
5
5
5
5
5
5
5
5
5
5
5
5
5
5
5
5
5
5
5
5
5
5
5
5
5
5
5
5
5
5
5
5
5
5
5
5
5
5
5
5
5
5
5
5
5
5
5
5
5
5
5
5
5
5
5
5
5
5
5
5
5
5
5
5
5
5
5
5
5
5
5
5
5
5
5
5
5
5
5
5
5
5
5
5
5
5
5
5
5
5
5
5
5
5
5
5
5
5
5
5
5
5
5
5
5
5
5
5
5
5
5
5
5
5
5
5
5
5
5
5
5
5
5
5
5
5
5
5
5
5
5
5
5
5
5
5
5
5
5
5
5
5
5
5
5
5
5
5
5
5
5
5
5
5
5
5
5
5
5
5
5
5
5
5
5
5
5
5
5
5
5
5
5
5
5
5
5
5
5
5
5
5
5
5
5
5
5
5
5
5
5
5
5
5
5
5
5
5
5
5
5
5
5
5
5
5
5
5
5
5
5
5
5
5
5
5
5
5
5
5
5
5
5
5
5
5
POINT_DATA 296
SCALARS concentrations float 4
LOOKUP_TABLE default
0 0.984283 0.17051 11.6952
0 0.984283 0.170372 11.5768
0 0.984282 0.169885 11.5914
0 0.984281 0.169246 11.7369
0 0.984288 0.0909098 0.00640393
0 0.98428 0.169791 11.3895
0 0.984281 0.169571 11.6165
0 0.984289 0.09091 0.00630647
0 0.984287 0.0909102 0.0055189
0 0.984281 0.169511 11.5901
0 0.984281 0.169666 11.488
0 0.984279 0.168445 11.4978
0 0.984279 0.168722 11.4799
0 0.984288 0.0909091 0.0069246
0 0.984286 0.0909086 0.00645252
0 0.984299 0.0909104 0.00660431
0 0.984299 0.0909104 0.00631093
0 0.984286 0.0909093 0.00510479
0 0.984287 0.090909 0.00583336
0 0.984299 0.0909105 0.00595363
0 0.984299 0.0909102 0.00562608
0 0.984282 0.17079 11.4938
0 0.984282 0.1715 12.0002
0 0.984287 0.0909091 0.00562614
0 0.984287 0.0909096 0.00560829
0 0.984285 0.0909084 0.00571173
0 0.98428 0.168179 11.3584
0 0.984286 0.0909086 0.00589236
0 0.984281 0.168734 11.4354
0 0.984298 0.0909102 0.00661434
0 0.984297 0.0909092 0.00619774
0 0.984309 0.0909059 0.00563637
0 0.984282 0.169439 11.6006
0 0.984311 0.0909041 0.00517376
0 0.98431 0.0909066 0.00541839
0 0.984298 0.0909101 0.00563625
0 0.984298 0.0909101 0.00578066
0 0.984311 0.0909047 0.00487123
0 0.984309 0.0909072 0.00517344
0 0.984288 0.09091 0.0060906
0 0.984288 0.0909101 0.00621131
0 0.984299 0.0909101 0.00580607
0 0.984299 0.0909102 0.00591064
0 0.984283 0.16881 11.4967
0 0.984297 0.0909101 0.00616253
0 0.984286 0.0909087 0.00595913
0 0.984298 0.0909108 0.00629029
0 0.984282 0.168162 11.3904
0 0.984287 0.0909084 0.00601944
0 0.984281 0.167819 11.3314
0 0.98431 0.0909043 0.00527919
0 0.984308 0.0909063 0.00554158
0 0.984318 0.0908953 0.00350456
0 0.984288 0.0909099 0.00600302
0 0.984289 0.0909093 0.00594028
0 0.984319 0.0908956 0.00344828
0 0.984311 0.0909052 0.00488743
0 0.984309 0.090907 0.00524611
0 0.984319 0.0908962 0.00340939
0 0.9843 0.0909101 0.00603013
0 0.9843 0.0909101 0.00604777
0 0.984311 0.0909056 0.00507481
0 0.98431 0.0909074 0.00546139
0 0.984284 0.167711 11.3347
0 0.98431 0.0909041 0.00506948
0 0.984298 0.0909104 0.00624949
0 0.984308 0.0909065 0.00549201
0 0.984287 0.090908 0.00589723
0 0.984298 0.0909096 0.00609726
0 0.98428 0.167672 11.3118
0 0.984286 0.0909078 0.00570774
0 0.984279 0.167731 11.3094
0 0.984325 0.090892 0.00279484
0 0.984318 0.0908953 0.00347272
0 0.984325 0.090892 0.00280402
0 0.984301 0.0909103 0.00608419
0 0.98429 0.0909088 0.0057133
0 0.984301 0.0909104 0.00608566
0 0.984325 0.0908922 0.00277253
0 0.98433 0.0908907 0.00250117
0 0.984319 0.0908964 0.00344692
0 0.984325 0.0908927 0.00282039
0 0.984312 0.0909042 0.00495886
0 0.984311 0.0909055 0.00523405
0 0.98432 0.0908965 0.00353166
0 0.984286 0.168092 11.1736
0 0.984318 0.0908951 0.00335771
0 0.98431 0.0909044 0.0050936
0 0.984298 0.0909099 0.00605991
0 0.984308 0.0909065 0.00543983
0 0.984286 0.0909076 0.0055788
0 0.984297 0.0909098 0.00590306
0 0.984278 0.167689 11.4
0 0.984284 0.0909073 0.00537661
0 0.984331 0.0908896 0.00232341
0 0.984324 0.0908921 0.00279539
0 0.98433 0.0908903 0.00244911
0 0.984324 0.0908918 0.00268661
0 0.984276 0.167989 11.4622
0 0.984291 0.0909083 0.00563742
0 0.984313 0.0909052 0.00519372
0 0.984302 0.0909088 0.0058267
0 0.984311 0.090907 0.0055507
0 0.984335 0.0908866 0.00175319
0 0.984332 0.09089 0.00236221
0 0.984326 0.0908928 0.00286398
0 0.984331 0.0908912 0.00257219
0 0.98432 0.0908968 0.00363758
0 0.984326 0.0908926 0.00285275
0 0.984286 0.167645 11.3405
0 0.984318 0.0908952 0.00331063
0 0.98431 0.0909049 0.00501644
0 0.984296 0.0909096 0.00566296
0 0.984308 0.0909072 0.00528071
0 0.984283 0.0909071 0.00466108
0 0.984296 0.0909092 0.00528805
0 0.984283 0.0909074 0.00466701
0 0.984338 0.0908848 0.00137893
0 0.984338 0.0908848 0.0014205
0 0.984335 0.090886 0.00163341
0 0.984331 0.0908895 0.00226547
0 0.984324 0.0908917 0.00258171
0 0.98433 0.0908905 0.00238345
0 0.984339 0.0908833 0.00106141
0 0.984277 0.167951 11.359
0 0.984291 0.0909079 0.00574239
0 0.984302 0.0909078 0.00570922
0 0.984321 0.0908984 0.00399767
0 0.984313 0.090906 0.0054328
0 0.984336 0.0908867 0.00180231
0 0.984332 0.0908902 0.00243492
0 0.984327 0.0908927 0.00293793
0 0.984332 0.09089 0.00244951
0 0.984291 0.0909083 0.00615442
0 0.984286 0.167707 11.3925
0 0.984318 0.0908952 0.00316412
0 0.984309 0.0909049 0.0046574
0 0.984295 0.0909091 0.00505211
0 0.984307 0.0909063 0.00470829
0 0.984284 0.0909078 0.00533807
0 0.984296 0.0909091 0.00513158
0 0.984324 0.0908916 0.00250107
0 0.98434 0.0908836 0.00129804
0 0.984341 0.0908811 0.000713235
0 0.984335 0.0908857 0.00151833
0 0.984331 0.0908895 0.00213477
0 0.98433 0.0908906 0.00229793
0 0.984338 0.0908828 0.000965658
0 0.984341 0.0908788 0.000209193
0 0.984284 0.090908 0.00498922
0 0.984278 0.168455 11.4264
0 0.984328 0.0908931 0.00309465
0 0.984303 0.0909081 0.00596427
0 0.984313 0.0909071 0.00570611
0 0.984322 0.0908987 0.00413354
0 0.984302 0.0909095 0.00637875
0 0.984337 0.0908866 0.00187622
0 0.984334 0.0908897 0.00247213
0 0.98434 0.0908839 0.00146042
0 0.984332 0.0908931 0.0031749
0 0.984291 0.0909082 0.00634432
0 0.984286 0.167678 11.1069
0 0.984318 0.090895 0.00298634
0 0.984309 0.0909042 0.00432523
0 0.984296 0.0909095 0.00532866
0 0.984307 0.0909063 0.00472088
0 0.984297 0.09091 0.00550935
0 0.984324 0.0908919 0.0025545
0 0.984341 0.090879 0.000678706
0 0.984335 0.0908855 0.00145606
0 0.984331 0.09089 0.00225252
0 0.984339 0.0908821 0.000937735
0 0.984341 0.0908794 0.000760233
0 0.984285 0.0909077 0.0051283
0 0.984278 0.167421 11.2094
0 0.984327 0.090894 0.00336512
0 0.984313 0.0909053 0.00549804
0 0.984321 0.0908999 0.00446952
0 0.984302 0.0909102 0.00650197
0 0.984312 0.0909054 0.00558636
0 0.984338 0.0908858 0.00182016
0 0.984336 0.0908883 0.00230984
0 0.98434 0.0908835 0.0015365
0 0.984334 0.0908913 0.00291478
0 0.984329 0.0908952 0.00364388
0 0.984302 0.0909098 0.00631602
0 0.98429 0.0909075 0.00586675
0 0.984286 0.166919 11.2367
0 0.984318 0.0908951 0.00305118
0 0.98431 0.0909042 0.00451266
0 0.984298 0.0909099 0.0057991
0 0.984309 0.0909064 0.00506078
0 0.984324 0.0908924 0.00275047
0 0.984331 0.0908913 0.00259443
0 0.98434 0.0908822 0.00136676
0 0.984336 0.0908859 0.00167846
0 0.984339 0.0908834 0.00132987
0 0.98434 0.0908837 0.0016262
0 0.984339 0.090884 0.0015896
0 0.984299 0.0909099 0.00617561
0 0.984287 0.0909073 0.0057171
0 0.98428 0.167686 11.34
0 0.984321 0.0908972 0.00402592
0 0.984314 0.0909046 0.00540991
0 0.984312 0.0909073 0.00586919
0 0.984327 0.090895 0.00361504
0 0.984337 0.0908859 0.00197776
0 0.984333 0.0908911 0.0029364
0 0.984301 0.0909095 0.00619502
0 0.98429 0.0909077 0.00581908
0 0.984285 0.16725 11.2975
0 0.984318 0.090895 0.00323708
0 0.984311 0.0909044 0.00497791
0 0.98431 0.090908 0.00585187
0 0.984325 0.0908924 0.00289327
0 0.984332 0.0908905 0.00259046
0 0.984338 0.0908866 0.00215893
0 0.984337 0.0908887 0.00254081
0 0.984336 0.0908869 0.00204702
0 0.984336 0.0908879 0.00233965
0 0.984299 0.0909102 0.0063834
0 0.984288 0.0909067 0.00590349
0 0.984283 0.166663 11.272
0 0.984321 0.0908972 0.00400353
0 0.984314 0.0909041 0.00523903
0 0.984328 0.0908931 0.00326936
0 0.984334 0.0908894 0.00262779
0 0.984312 0.0909057 0.00549106
0 0.984302 0.0909101 0.00628927
0 0.98429 0.090908 0.0059176
0 0.984285 0.168478 11.4527
0 0.984319 0.0908951 0.00346641
0 0.984312 0.0909054 0.00546018
0 0.984325 0.0908921 0.00295807
0 0.984331 0.0908916 0.0028984
0 0.984333 0.0908905 0.00282785
0 0.984333 0.0908913 0.00297082
0 0.984332 0.0908911 0.00288335
0 0.984332 0.0908921 0.00310774
0 0.984311 0.090907 0.00579506
0 0.9843 0.0909101 0.00635265
0 0.984289 0.0909065 0.00579337
0 0.984284 0.165938 10.9643
0 0.984321 0.0908955 0.00366315
0 0.984328 0.0908917 0.00299628
0 0.984314 0.0909043 0.00521755
0 0.984302 0.0909103 0.00627979
0 0.98429 0.0909079 0.00584236
0 0.984285 0.168506 11.4064
0 0.98432 0.0908952 0.00360014
0 0.984326 0.0908924 0.00309159
0 0.984328 0.0908913 0.00291748
0 0.984327 0.0908918 0.00302091
0 0.984326 0.0908922 0.00307858
0 0.984313 0.0909046 0.00536798
0 0.9843 0.0909097 0.00621823
0 0.984289 0.090907 0.00570313
0 0.984284 0.166887 11.2613
0 0.984322 0.0908958 0.00369409
0 0.984312 0.0909065 0.00560903
0 0.984301 0.0909092 0.00607676
0 0.98429 0.0909074 0.00575548
0 0.984285 0.167326 11.2704
0 0.98432 0.0908955 0.0037075
0 0.984321 0.0908953 0.00362622
0 0.984321 0.0908953 0.00366787
0 0.984311 0.0909067 0.00579081
0 0.984301 0.0909093 0.00617202
0 0.984289 0.0909071 0.00565401
0 0.984284 0.167466 11.3253
0 0.984314 0.0909047 0.00528459
0 0.984302 0.090909 0.00602005
0 0.98429 0.0909072 0.00569363
0 0.984285 0.166773 11.2542
0 0.984312 0.0909069 0.00569649
0 0.984313 0.0909048 0.00548692
0 0.984314 0.0909049 0.0053947
0 0.984312 0.090907 0.00587176
0 0.984301 0.09091 0.00642939
0 0.98429 0.0909068 0.00568853
0 0.984284 0.166925 11.2361
0 0.984301 0.0909096 0.00611657
0 0.98429 0.0909072 0.00572494
0 0.984285 0.167226 11.2678
0 0.984301 0.0909099 0.0061774
0 0.984302 0.09091 0.00647405
0 0.984301 0.0909099 0.00632874
0 0.984291 0.090907 0.00605236
0 0.984285 0.165116 11.0476
0 0.98429 0.0909073 0.00559189
0 0.984285 0.167193 11.2749
0 0.98429 0.0909071 0.00555059
0 0.984291 0.0909072 0.00604142
0 0.984286 0.16601 11
0 0.984284 0.167268 11.2372
0 0.984285 0.166797 11.2568
VECTORS fa_u float
0.0107995 0.0044888 0
0.010033 0.00577582 0
0.0111958 0.00300246 0
0.0116347 0.00154538 0
6.15162e-06 1.77983e-06 0
0.00904181 0.00692582 0
0.00820432 0.00822384 0
5.80821e-06 2.45688e-06 0
5.03899e-06 2.25096e-06 0
0.00706775 0.00918574 0
0.00574044 0.00995091 0
0.0114978 6.46575e-06 0
0.0113811 -0.00150288 0
6.8597e-06 9.45867e-07 0
6.32665e-06 1.26827e-06 0
6.40372e-06 1.61532e-06 0
5.94179e-06 2.12671e-06 0
3.51298e-06 3.70376e-06 0
3.70496e-06 4.5057e-06 0
5.30328e-06 2.70572e-06 0
4.52849e-06 3.3385e-06 0
0.00438711 0.0106236 0
0.00311912 0.0115878 0
3.22983e-06 4.6067e-06 0
2.17481e-06 5.16944e-06 0
5.7031e-06 -3.13805e-07 0
0.0109705 -0.00294315 0
5.78853e-06 -1.1013e-06 0
0.0105611 -0.00438538 0
6.56396e-06 8.14808e-07 0
6.19186e-06 2.69915e-07 0
5.54422e-06 1.01504e-06 0
0.00152223 0.0115003 0
4.91674e-06 1.61043e-06 0
4.95516e-06 2.1921e-06 0
3.84979e-06 4.1166e-06 0
3.45277e-06 4.63621e-06 0
4.07521e-06 2.66863e-06 0
3.8677e-06 3.4359e-06 0
1.85844e-06 5.80014e-06 0
1.22448e-06 6.08942e-06 0
2.73822e-06 5.11983e-06 0
2.17706e-06 5.49509e-06 0
-3.73864e-06 0.0114967 0
6.12364e-06 -6.91204e-07 0
5.64157e-06 -1.91935e-06 0
6.10745e-06 -1.50559e-06 0
0.00986501 -0.00569405 0
5.41499e-06 -2.62898e-06 0
0.00899227 -0.00689493 0
5.2687e-06 3.32582e-07 0
5.53937e-06 -1.56369e-07 0
3.44704e-06 6.32327e-07 0
2.55784e-07 5.99757e-06 0
-6.24323e-07 5.90738e-06 0
3.14447e-06 1.41526e-06 0
3.13607e-06 3.74861e-06 0
2.80122e-06 4.43563e-06 0
2.57674e-06 2.23257e-06 0
1.49263e-06 5.84248e-06 0
7.02208e-07 6.00687e-06 0
2.13657e-06 4.60313e-06 0
1.68376e-06 5.19535e-06 0
-0.00148642 0.0112368 0
5.00475e-06 -8.07503e-07 0
5.7655e-06 -2.41148e-06 0
5.20695e-06 -1.74639e-06 0
5.03021e-06 -3.07804e-06 0
5.36191e-06 -2.90283e-06 0
0.00799762 -0.00799973 0
4.46732e-06 -3.55265e-06 0
0.00688425 -0.00897278 0
2.67023e-06 8.25221e-07 0
3.46722e-06 -1.95354e-07 0
2.79756e-06 1.90202e-07 0
-3.59617e-07 6.07355e-06 0
-1.1088e-06 5.60467e-06 0
-1.01857e-06 5.99981e-06 0
2.3325e-06 1.4988e-06 0
2.25605e-06 1.07986e-06 0
1.91751e-06 2.86434e-06 0
1.89071e-06 2.0928e-06 0
8.51917e-07 4.88513e-06 0
9.14451e-08 5.23325e-06 0
1.10603e-06 3.354e-06 0
-0.00289411 0.0107923 0
3.19527e-06 -1.03172e-06 0
4.58871e-06 -2.21099e-06 0
4.92806e-06 -3.52658e-06 0
4.62438e-06 -2.86477e-06 0
3.93918e-06 -3.95042e-06 0
4.39673e-06 -3.93888e-06 0
0.0057025 -0.00987126 0
3.40706e-06 -4.15932e-06 0
2.26768e-06 5.05854e-07 0
2.74258e-06 -5.40793e-07 0
2.44625e-06 -1.18229e-07 0
2.42984e-06 -1.14618e-06 0
0.00438481 -0.0105903 0
-2.09502e-06 5.23368e-06 0
-5.82518e-07 5.16095e-06 0
-1.80174e-06 5.54113e-06 0
-1.41062e-06 5.36846e-06 0
1.55575e-06 8.08286e-07 0
1.7602e-06 1.57535e-06 0
1.28386e-06 2.56009e-06 0
1.43516e-06 2.13459e-06 0
1.87361e-07 3.63275e-06 0
6.10686e-07 2.78662e-06 0
-0.00433368 0.0104798 0
2.79533e-06 -1.77381e-06 0
3.91074e-06 -3.14178e-06 0
3.7146e-06 -4.27444e-06 0
3.64904e-06 -3.81713e-06 0
2.66174e-06 -3.82633e-06 0
2.98456e-06 -4.36531e-06 0
8.43769e-07 -4.5901e-06 0
1.32245e-06 3.90612e-07 0
1.04768e-06 9.59255e-07 0
1.63335e-06 -1.43225e-08 0
2.16515e-06 -6.66708e-07 0
1.9418e-06 -1.70136e-06 0
1.99433e-06 -1.30517e-06 0
1.0406e-06 -2.09124e-07 0
0.00293408 -0.0109735 0
-2.75808e-06 5.03667e-06 0
-2.42849e-06 5.16697e-06 0
-8.38721e-07 3.9087e-06 0
-2.02377e-06 5.04179e-06 0
9.71501e-07 1.51806e-06 0
7.29123e-07 2.32319e-06 0
-1.95055e-07 2.93144e-06 0
1.59964e-07 2.44428e-06 0
-3.93861e-06 4.72909e-06 0
-0.00569893 0.0098647 0
2.12806e-06 -2.34158e-06 0
2.7491e-06 -3.7595e-06 0
1.91117e-06 -4.67667e-06 0
2.15811e-06 -4.18456e-06 0
6.23628e-07 -5.30151e-06 0
1.01778e-06 -5.02963e-06 0
1.30339e-06 -2.13461e-06 0
3.73321e-07 1.24319e-06 0
5.30744e-07 4.76461e-07 0
1.28443e-06 -8.0967e-07 0
1.38457e-06 -1.62487e-06 0
8.28478e-07 -2.14339e-06 0
5.85015e-07 -7.68279e-07 0
6.99943e-08 -1.97136e-07 0
2.29967e-07 -4.98391e-06 0
0.00150553 -0.0113267 0
-9.97383e-07 2.92952e-06 0
-3.20652e-06 5.02899e-06 0
-2.65154e-06 5.05263e-06 0
-1.63807e-06 3.79511e-06 0
-3.96164e-06 4.99939e-06 0
1.27634e-07 1.87188e-06 0
-5.17507e-07 2.41735e-06 0
-2.76336e-07 1.43404e-06 0
-1.32787e-06 2.88388e-06 0
-4.1004e-06 4.84119e-06 0
-0.0067662 0.00880807 0
1.20042e-06 -2.73445e-06 0
1.23924e-06 -4.1439e-06 0
2.80608e-07 -5.32127e-06 0
5.99039e-07 -4.68272e-06 0
-5.3398e-07 -5.48342e-06 0
5.18483e-07 -2.50133e-06 0
-3.80814e-07 5.61803e-07 0
4.74845e-07 -1.37646e-06 0
1.40632e-07 -2.24813e-06 0
-1.33054e-07 -9.28247e-07 0
-7.32052e-07 -2.05071e-07 0
-1.29583e-06 -4.96188e-06 0
4.3065e-06 -0.0112094 0
-1.88553e-06 2.78725e-06 0
-3.11229e-06 4.53235e-06 0
-2.54473e-06 3.67436e-06 0
-4.67147e-06 4.52249e-06 0
-3.73519e-06 4.15401e-06 0
-6.77735e-07 1.68928e-06 0
-1.17319e-06 1.98971e-06 0
-1.0051e-06 1.16216e-06 0
-1.85815e-06 2.24572e-06 0
-2.50014e-06 2.65088e-06 0
-4.86403e-06 4.02905e-06 0
-4.23645e-06 4.05848e-06 0
-0.0079396 0.00795155 0
2.464e-07 -3.04121e-06 0
-9.25523e-08 -4.51171e-06 0
-1.53982e-06 -5.59093e-06 0
-9.0313e-07 -4.97954e-06 0
-2.55752e-07 -2.73855e-06 0
-6.31195e-07 -2.51648e-06 0
-1.23994e-06 5.74965e-07 0
-4.84449e-07 -1.60703e-06 0
-8.09139e-07 -1.05539e-06 0
-1.62352e-06 -9.33072e-08 0
-1.39527e-06 -7.61605e-07 0
-2.30932e-06 -5.72759e-06 0
-1.93515e-06 -5.37963e-06 0
-0.00148714 -0.0112421 0
-2.78799e-06 2.90434e-06 0
-4.07996e-06 3.55262e-06 0
-4.74363e-06 3.4562e-06 0
-2.83109e-06 2.248e-06 0
-1.58206e-06 1.18685e-06 0
-2.40205e-06 1.68897e-06 0
-5.25251e-06 3.28473e-06 0
-4.73144e-06 3.3875e-06 0
-0.00896455 0.0068754 0
-6.85518e-07 -3.16366e-06 0
-1.50495e-06 -4.74497e-06 0
-2.44841e-06 -5.31504e-06 0
-1.06951e-06 -2.68833e-06 0
-1.26845e-06 -2.25865e-06 0
-2.06724e-06 6.22495e-07 0
-2.53963e-06 -7.73458e-08 0
-1.44847e-06 -1.44645e-06 0
-2.17868e-06 -8.52822e-07 0
-2.91261e-06 -5.68019e-06 0
-2.61654e-06 -5.29197e-06 0
-0.00291443 -0.0108887 0
-3.28741e-06 2.28499e-06 0
-4.59995e-06 2.50758e-06 0
-2.93617e-06 1.43793e-06 0
-2.47787e-06 8.74906e-07 0
-5.16681e-06 1.85897e-06 0
-5.70517e-06 2.64687e-06 0
-5.21715e-06 2.79272e-06 0
-0.00992134 0.00572122 0
-1.54398e-06 -3.10356e-06 0
-2.70851e-06 -4.74105e-06 0
-1.71516e-06 -2.41006e-06 0
-1.96623e-06 -2.12948e-06 0
-2.81366e-06 2.82879e-07 0
-2.94045e-06 -4.23682e-07 0
-2.40319e-06 -1.59324e-06 0
-2.9156e-06 -1.07581e-06 0
-3.50595e-06 -4.61422e-06 0
-3.2767e-06 -5.44236e-06 0
-2.61287e-06 -5.1707e-06 0
-0.0041942 -0.0101304 0
-3.43018e-06 1.28551e-06 0
-2.9171e-06 6.84273e-07 0
-5.12541e-06 9.76231e-07 0
-6.07279e-06 1.59908e-06 0
-5.48755e-06 2.00498e-06 0
-0.0105359 0.00437047 0
-2.3526e-06 -2.72513e-06 0
-2.35833e-06 -1.99904e-06 0
-2.91649e-06 -7.63026e-08 0
-2.91744e-06 -7.83873e-07 0
-2.72592e-06 -1.43074e-06 0
-3.80656e-06 -3.78489e-06 0
-4.03635e-06 -4.73015e-06 0
-3.30489e-06 -4.64795e-06 0
-0.00562784 -0.0097542 0
-3.67536e-06 3.71606e-07 0
-5.59317e-06 4.21569e-07 0
-6.01125e-06 8.89904e-07 0